 title = "grid"
                                   variables = "x","y","rho","P","u","v","M","S"
 zone n=         750  e =        1372  et=quadrilateral, f=fepoint
   0.00000000       0.00000000      0.956380069      0.939469635      0.351812601       0.00000000      0.300000012       4.09781933E-08
   1.00000000       0.00000000      0.956380069      0.939469635      0.351812601       0.00000000      0.300000012       4.09781933E-08
   1.00000000      0.300000012      0.956380069      0.939469635      0.351812601       0.00000000      0.300000012       4.09781933E-08
   0.00000000      0.300000012      0.956380069      0.939469635      0.351812601       0.00000000      0.300000012       4.09781933E-08
   1.00000000       2.14285720E-02  0.956380069      0.939469635      0.351812601       0.00000000      0.300000012       4.09781933E-08
   1.00000000       4.28571440E-02  0.956380069      0.939469635      0.351812601       0.00000000      0.300000012       4.09781933E-08
   1.00000000       6.42857179E-02  0.956380069      0.939469635      0.351812601       0.00000000      0.300000012       4.09781933E-08
   1.00000000       8.57142881E-02  0.956380069      0.939469635      0.351812601       0.00000000      0.300000012       4.09781933E-08
   1.00000000      0.107142858      0.956380069      0.939469635      0.351812601       0.00000000      0.300000012       4.09781933E-08
   1.00000000      0.128571436      0.956380069      0.939469635      0.351812601       0.00000000      0.300000012       4.09781933E-08
   1.00000000      0.150000006      0.956380069      0.939469635      0.351812601       0.00000000      0.300000012       4.09781933E-08
   1.00000000      0.171428576      0.956380069      0.939469635      0.351812601       0.00000000      0.300000012       4.09781933E-08
   1.00000000      0.192857146      0.956380069      0.939469635      0.351812601       0.00000000      0.300000012       4.09781933E-08
   1.00000000      0.214285716      0.956380069      0.939469635      0.351812601       0.00000000      0.300000012       4.09781933E-08
   1.00000000      0.235714287      0.956380069      0.939469635      0.351812601       0.00000000      0.300000012       4.09781933E-08
   1.00000000      0.257142872      0.956380069      0.939469635      0.351812601       0.00000000      0.300000012       4.09781933E-08
   1.00000000      0.278571427      0.956380069      0.939469635      0.351812601       0.00000000      0.300000012       4.09781933E-08
  0.979591846      0.300000012      0.956380069      0.939469635      0.351812601       0.00000000      0.300000012       4.09781933E-08
  0.959183693      0.300000012      0.956380069      0.939469635      0.351812601       0.00000000      0.300000012       4.09781933E-08
  0.938775539      0.300000012      0.956380069      0.939469635      0.351812601       0.00000000      0.300000012       4.09781933E-08
  0.918367326      0.300000012      0.956380069      0.939469635      0.351812601       0.00000000      0.300000012       4.09781933E-08
  0.897959173      0.300000012      0.956380069      0.939469635      0.351812601       0.00000000      0.300000012       4.09781933E-08
  0.877551019      0.300000012      0.956380069      0.939469635      0.351812601       0.00000000      0.300000012       4.09781933E-08
  0.857142866      0.300000012      0.956380069      0.939469635      0.351812601       0.00000000      0.300000012       4.09781933E-08
  0.836734712      0.300000012      0.956380069      0.939469635      0.351812601       0.00000000      0.300000012       4.09781933E-08
  0.816326559      0.300000012      0.956380069      0.939469635      0.351812601       0.00000000      0.300000012       4.09781933E-08
  0.795918345      0.300000012      0.956380069      0.939469635      0.351812601       0.00000000      0.300000012       4.09781933E-08
  0.775510192      0.300000012      0.956380069      0.939469635      0.351812601       0.00000000      0.300000012       4.09781933E-08
  0.755102038      0.300000012      0.956380069      0.939469635      0.351812601       0.00000000      0.300000012       4.09781933E-08
  0.734693885      0.300000012      0.956380069      0.939469635      0.351812601       0.00000000      0.300000012       4.09781933E-08
  0.714285731      0.300000012      0.956380069      0.939469635      0.351812601       0.00000000      0.300000012       4.09781933E-08
  0.693877578      0.300000012      0.956380069      0.939469635      0.351812601       0.00000000      0.300000012       4.09781933E-08
  0.673469365      0.300000012      0.956380069      0.939469635      0.351812601       0.00000000      0.300000012       4.09781933E-08
  0.653061211      0.300000012      0.956380069      0.939469635      0.351812601       0.00000000      0.300000012       4.09781933E-08
  0.632653058      0.300000012      0.956380069      0.939469635      0.351812601       0.00000000      0.300000012       4.09781933E-08
  0.612244904      0.300000012      0.956380069      0.939469635      0.351812601       0.00000000      0.300000012       4.09781933E-08
  0.591836751      0.300000012      0.956380069      0.939469635      0.351812601       0.00000000      0.300000012       4.09781933E-08
  0.571428597      0.300000012      0.956380069      0.939469635      0.351812601       0.00000000      0.300000012       4.09781933E-08
  0.551020384      0.300000012      0.956380069      0.939469635      0.351812601       0.00000000      0.300000012       4.09781933E-08
  0.530612230      0.300000012      0.956380069      0.939469635      0.351812601       0.00000000      0.300000012       4.09781933E-08
  0.510204077      0.300000012      0.956380069      0.939469635      0.351812601       0.00000000      0.300000012       4.09781933E-08
  0.489795923      0.300000012      0.956380069      0.939469635      0.351812601       0.00000000      0.300000012       4.09781933E-08
  0.469387770      0.300000012      0.956380069      0.939469635      0.351812601       0.00000000      0.300000012       4.09781933E-08
  0.448979586      0.300000012      0.956380069      0.939469635      0.351812601       0.00000000      0.300000012       4.09781933E-08
  0.428571433      0.300000012      0.956380069      0.939469635      0.351812601       0.00000000      0.300000012       4.09781933E-08
  0.408163279      0.300000012      0.956380069      0.939469635      0.351812601       0.00000000      0.300000012       4.09781933E-08
  0.387755096      0.300000012      0.956380069      0.939469635      0.351812601       0.00000000      0.300000012       4.09781933E-08
  0.367346942      0.300000012      0.956380069      0.939469635      0.351812601       0.00000000      0.300000012       4.09781933E-08
  0.346938789      0.300000012      0.956380069      0.939469635      0.351812601       0.00000000      0.300000012       4.09781933E-08
  0.326530606      0.300000012      0.956380069      0.939469635      0.351812601       0.00000000      0.300000012       4.09781933E-08
  0.306122452      0.300000012      0.956380069      0.939469635      0.351812601       0.00000000      0.300000012       4.09781933E-08
  0.285714298      0.300000012      0.956380069      0.939469635      0.351812601       0.00000000      0.300000012       4.09781933E-08
  0.265306115      0.300000012      0.956380069      0.939469635      0.351812601       0.00000000      0.300000012       4.09781933E-08
  0.244897962      0.300000012      0.956380069      0.939469635      0.351812601       0.00000000      0.300000012       4.09781933E-08
  0.224489793      0.300000012      0.956380069      0.939469635      0.351812601       0.00000000      0.300000012       4.09781933E-08
  0.204081640      0.300000012      0.956380069      0.939469635      0.351812601       0.00000000      0.300000012       4.09781933E-08
  0.183673471      0.300000012      0.956380069      0.939469635      0.351812601       0.00000000      0.300000012       4.09781933E-08
  0.163265303      0.300000012      0.956380069      0.939469635      0.351812601       0.00000000      0.300000012       4.09781933E-08
  0.142857149      0.300000012      0.956380069      0.939469635      0.351812601       0.00000000      0.300000012       4.09781933E-08
  0.122448981      0.300000012      0.956380069      0.939469635      0.351812601       0.00000000      0.300000012       4.09781933E-08
  0.102040820      0.300000012      0.956380069      0.939469635      0.351812601       0.00000000      0.300000012       4.09781933E-08
   8.16326514E-02  0.300000012      0.956380069      0.939469635      0.351812601       0.00000000      0.300000012       4.09781933E-08
   6.12244904E-02  0.300000012      0.956380069      0.939469635      0.351812601       0.00000000      0.300000012       4.09781933E-08
   4.08163257E-02  0.300000012      0.956380069      0.939469635      0.351812601       0.00000000      0.300000012       4.09781933E-08
   2.04081628E-02  0.300000012      0.956380069      0.939469635      0.351812601       0.00000000      0.300000012       4.09781933E-08
   0.00000000      0.278571427      0.956380069      0.939469635      0.351812601       0.00000000      0.300000012       4.09781933E-08
   0.00000000      0.257142872      0.956380069      0.939469635      0.351812601       0.00000000      0.300000012       4.09781933E-08
   0.00000000      0.235714287      0.956380069      0.939469635      0.351812601       0.00000000      0.300000012       4.09781933E-08
   0.00000000      0.214285716      0.956380069      0.939469635      0.351812601       0.00000000      0.300000012       4.09781933E-08
   0.00000000      0.192857146      0.956380069      0.939469635      0.351812601       0.00000000      0.300000012       4.09781933E-08
   0.00000000      0.171428576      0.956380069      0.939469635      0.351812601       0.00000000      0.300000012       4.09781933E-08
   0.00000000      0.150000006      0.956380069      0.939469635      0.351812601       0.00000000      0.300000012       4.09781933E-08
   0.00000000      0.128571436      0.956380069      0.939469635      0.351812601       0.00000000      0.300000012       4.09781933E-08
   0.00000000      0.107142858      0.956380069      0.939469635      0.351812601       0.00000000      0.300000012       4.09781933E-08
   0.00000000       8.57142881E-02  0.956380069      0.939469635      0.351812601       0.00000000      0.300000012       4.09781933E-08
   0.00000000       6.42857179E-02  0.956380069      0.939469635      0.351812601       0.00000000      0.300000012       4.09781933E-08
   0.00000000       4.28571440E-02  0.956380069      0.939469635      0.351812601       0.00000000      0.300000012       4.09781933E-08
   0.00000000       2.14285720E-02  0.956380069      0.939469635      0.351812601       0.00000000      0.300000012       4.09781933E-08
   2.05965936E-02  -4.13848684E-05  0.956380069      0.939469635      0.351812601       0.00000000      0.300000012       4.09781933E-08
   4.11929786E-02  -1.51938104E-04  0.956380069      0.939469635      0.351812601       0.00000000      0.300000012       4.09781933E-08
   6.17889874E-02  -3.14505887E-04  0.956380069      0.939469635      0.351812601       0.00000000      0.300000012       4.09781933E-08
   8.23846832E-02  -5.15037973E-04  0.956380069      0.939469635      0.351812601       0.00000000      0.300000012       4.09781933E-08
  0.102980107      -7.41501746E-04  0.956380069      0.939469635      0.351812601       0.00000000      0.300000012       4.09781933E-08
  0.123575367      -9.83132166E-04  0.956380069      0.939469635      0.351812601       0.00000000      0.300000012       4.09781933E-08
  0.144170567      -1.22986489E-03  0.956380069      0.939469635      0.351812601       0.00000000      0.300000012       4.09781933E-08
  0.164765805      -1.47186557E-03  0.956380069      0.939469635      0.351812601       0.00000000      0.300000012       4.09781933E-08
  0.185361236      -1.69908674E-03  0.956380069      0.939469635      0.351812601       0.00000000      0.300000012       4.09781933E-08
  0.205956906      -1.90079887E-03  0.956380069      0.939469635      0.351812601       0.00000000      0.300000012       4.09781933E-08
  0.226552933      -2.06502923E-03  0.956380069      0.939469635      0.351812601       0.00000000      0.300000012       4.09781933E-08
  0.247149289      -2.17781961E-03  0.956380069      0.939469635      0.351812601       0.00000000      0.300000012       4.09781933E-08
  0.267745912      -2.22215871E-03  0.956380069      0.939469635      0.351812601       0.00000000      0.300000012       4.09781933E-08
  0.288342476      -2.17632344E-03  0.956380069      0.939469635      0.351812601       0.00000000      0.300000012       4.09781933E-08
  0.308938444      -2.01110821E-03  0.956380069      0.939469635      0.351812601       0.00000000      0.300000012       4.09781933E-08
  0.329532504      -1.68479502E-03  0.956380069      0.939469635      0.351812601       0.00000000      0.300000012       4.09781933E-08
  0.350121617      -1.13302853E-03  0.956380069      0.939469635      0.351812601       0.00000000      0.300000012       4.09781933E-08
  0.370698810      -2.45296280E-04  0.956380069      0.939469635      0.351812601       0.00000000      0.300000012       4.09781933E-08
  0.391233593       1.31973682E-03  0.956380069      0.939469635      0.351812601       0.00000000      0.300000012       4.09781933E-08
  0.411623418       4.19568829E-03  0.956380069      0.939469635      0.351812601       0.00000000      0.300000012       4.09781933E-08
  0.431661844       8.91561527E-03  0.956380069      0.939469635      0.351812601       0.00000000      0.300000012       4.09781933E-08
  0.451005518       1.59534402E-02  0.956380069      0.939469635      0.351812601       0.00000000      0.300000012       4.09781933E-08
  0.469851911       2.42583062E-02  0.956380069      0.939469635      0.351812601       0.00000000      0.300000012       4.09781933E-08
  0.489723206       2.94313785E-02  0.956380069      0.939469635      0.351812601       0.00000000      0.300000012       4.09781933E-08
  0.510276794       2.94313785E-02  0.956380069      0.939469635      0.351812601       0.00000000      0.300000012       4.09781933E-08
  0.530148089       2.42583044E-02  0.956380069      0.939469635      0.351812601       0.00000000      0.300000012       4.09781933E-08
  0.548994482       1.59534402E-02  0.956380069      0.939469635      0.351812601       0.00000000      0.300000012       4.09781933E-08
  0.568338156       8.91561527E-03  0.956380069      0.939469635      0.351812601       0.00000000      0.300000012       4.09781933E-08
  0.588376582       4.19568783E-03  0.956380069      0.939469635      0.351812601       0.00000000      0.300000012       4.09781933E-08
  0.608766437       1.31973659E-03  0.956380069      0.939469635      0.351812601       0.00000000      0.300000012       4.09781933E-08
  0.629301190      -2.45296367E-04  0.956380069      0.939469635      0.351812601       0.00000000      0.300000012       4.09781933E-08
  0.649878383      -1.13302865E-03  0.956380069      0.939469635      0.351812601       0.00000000      0.300000012       4.09781933E-08
  0.670467496      -1.68479513E-03  0.956380069      0.939469635      0.351812601       0.00000000      0.300000012       4.09781933E-08
  0.691061556      -2.01110821E-03  0.956380069      0.939469635      0.351812601       0.00000000      0.300000012       4.09781933E-08
  0.711657524      -2.17632344E-03  0.956380069      0.939469635      0.351812601       0.00000000      0.300000012       4.09781933E-08
  0.732254088      -2.22215871E-03  0.956380069      0.939469635      0.351812601       0.00000000      0.300000012       4.09781933E-08
  0.752850711      -2.17781961E-03  0.956380069      0.939469635      0.351812601       0.00000000      0.300000012       4.09781933E-08
  0.773447096      -2.06502923E-03  0.956380069      0.939469635      0.351812601       0.00000000      0.300000012       4.09781933E-08
  0.794043124      -1.90079887E-03  0.956380069      0.939469635      0.351812601       0.00000000      0.300000012       4.09781933E-08
  0.814638793      -1.69908674E-03  0.956380069      0.939469635      0.351812601       0.00000000      0.300000012       4.09781933E-08
  0.835234165      -1.47186557E-03  0.956380069      0.939469635      0.351812601       0.00000000      0.300000012       4.09781933E-08
  0.855829418      -1.22986489E-03  0.956380069      0.939469635      0.351812601       0.00000000      0.300000012       4.09781933E-08
  0.876424611      -9.83132166E-04  0.956380069      0.939469635      0.351812601       0.00000000      0.300000012       4.09781933E-08
  0.897019863      -7.41501746E-04  0.956380069      0.939469635      0.351812601       0.00000000      0.300000012       4.09781933E-08
  0.917615294      -5.15037973E-04  0.956380069      0.939469635      0.351812601       0.00000000      0.300000012       4.09781933E-08
  0.938211024      -3.14505887E-04  0.956380069      0.939469635      0.351812601       0.00000000      0.300000012       4.09781933E-08
  0.958807051      -1.51938104E-04  0.956380069      0.939469635      0.351812601       0.00000000      0.300000012       4.09781933E-08
  0.979403377      -4.13848684E-05  0.956380069      0.939469635      0.351812601       0.00000000      0.300000012       4.09781933E-08
   2.05831341E-02   2.13901419E-02  0.956380069      0.939469635      0.351812601       0.00000000      0.300000012       4.09781933E-08
   2.05696747E-02   4.28216718E-02  0.956380069      0.939469635      0.351812601       0.00000000      0.300000012       4.09781933E-08
   2.05562152E-02   6.42531961E-02  0.956380069      0.939469635      0.351812601       0.00000000      0.300000012       4.09781933E-08
   2.05427557E-02   8.56847242E-02  0.956380069      0.939469635      0.351812601       0.00000000      0.300000012       4.09781933E-08
   2.05292962E-02  0.107116252      0.956380069      0.939469635      0.351812601       0.00000000      0.300000012       4.09781933E-08
   2.05158386E-02  0.128547773      0.956380069      0.939469635      0.351812601       0.00000000      0.300000012       4.09781933E-08
   2.05023792E-02  0.149979308      0.956380069      0.939469635      0.351812601       0.00000000      0.300000012       4.09781933E-08
   2.04889197E-02  0.171410829      0.956380069      0.939469635      0.351812601       0.00000000      0.300000012       4.09781933E-08
   2.04754602E-02  0.192842364      0.956380069      0.939469635      0.351812601       0.00000000      0.300000012       4.09781933E-08
   2.04620007E-02  0.214273885      0.956380069      0.939469635      0.351812601       0.00000000      0.300000012       4.09781933E-08
   2.04485413E-02  0.235705420      0.956380069      0.939469635      0.351812601       0.00000000      0.300000012       4.09781933E-08
   2.04350818E-02  0.257136941      0.956380069      0.939469635      0.351812601       0.00000000      0.300000012       4.09781933E-08
   2.04216223E-02  0.278568476      0.956380069      0.939469635      0.351812601       0.00000000      0.300000012       4.09781933E-08
   4.11660746E-02   2.12874860E-02  0.956380069      0.939469635      0.351812601       0.00000000      0.300000012       4.09781933E-08
   4.11391705E-02   4.27269116E-02  0.956380069      0.939469635      0.351812601       0.00000000      0.300000012       4.09781933E-08
   4.11122665E-02   6.41663373E-02  0.956380069      0.939469635      0.351812601       0.00000000      0.300000012       4.09781933E-08
   4.10853624E-02   8.56057554E-02  0.956380069      0.939469635      0.351812601       0.00000000      0.300000012       4.09781933E-08
   4.10584584E-02  0.107045181      0.956380069      0.939469635      0.351812601       0.00000000      0.300000012       4.09781933E-08
   4.10315543E-02  0.128484607      0.956380069      0.939469635      0.351812601       0.00000000      0.300000012       4.09781933E-08
   4.10046503E-02  0.149924025      0.956380069      0.939469635      0.351812601       0.00000000      0.300000012       4.09781933E-08
   4.09777500E-02  0.171363458      0.956380069      0.939469635      0.351812601       0.00000000      0.300000012       4.09781933E-08
   4.09508459E-02  0.192802876      0.956380069      0.939469635      0.351812601       0.00000000      0.300000012       4.09781933E-08
   4.09239419E-02  0.214242309      0.956380069      0.939469635      0.351812601       0.00000000      0.300000012       4.09781933E-08
   4.08970378E-02  0.235681728      0.956380069      0.939469635      0.351812601       0.00000000      0.300000012       4.09781933E-08
   4.08701338E-02  0.257121146      0.956380069      0.939469635      0.351812601       0.00000000      0.300000012       4.09781933E-08
   4.08432297E-02  0.278560579      0.956380069      0.939469635      0.351812601       0.00000000      0.300000012       4.09781933E-08
   6.17486648E-02   2.11365297E-02  0.956380069      0.939469635      0.351812601       0.00000000      0.300000012       4.09781933E-08
   6.17083460E-02   4.25875671E-02  0.956380069      0.939469635      0.351812601       0.00000000      0.300000012       4.09781933E-08
   6.16680235E-02   6.40386045E-02  0.956380069      0.939469635      0.351812601       0.00000000      0.300000012       4.09781933E-08
   6.16277009E-02   8.54896381E-02  0.956380069      0.939469635      0.351812601       0.00000000      0.300000012       4.09781933E-08
   6.15873821E-02  0.106940672      0.956380069      0.939469635      0.351812601       0.00000000      0.300000012       4.09781933E-08
   6.15470596E-02  0.128391713      0.956380069      0.939469635      0.351812601       0.00000000      0.300000012       4.09781933E-08
   6.15067370E-02  0.149842754      0.956380069      0.939469635      0.351812601       0.00000000      0.300000012       4.09781933E-08
   6.14664182E-02  0.171293780      0.956380069      0.939469635      0.351812601       0.00000000      0.300000012       4.09781933E-08
   6.14260957E-02  0.192744821      0.956380069      0.939469635      0.351812601       0.00000000      0.300000012       4.09781933E-08
   6.13857731E-02  0.214195862      0.956380069      0.939469635      0.351812601       0.00000000      0.300000012       4.09781933E-08
   6.13454543E-02  0.235646889      0.956380069      0.939469635      0.351812601       0.00000000      0.300000012       4.09781933E-08
   6.13051318E-02  0.257097930      0.956380069      0.939469635      0.351812601       0.00000000      0.300000012       4.09781933E-08
   6.12648092E-02  0.278548956      0.956380069      0.939469635      0.351812601       0.00000000      0.300000012       4.09781933E-08
   8.23309720E-02   2.09503211E-02  0.956380069      0.939469635      0.351812601       0.00000000      0.300000012       4.09781933E-08
   8.22772533E-02   4.24156822E-02  0.956380069      0.939469635      0.351812601       0.00000000      0.300000012       4.09781933E-08
   8.22235346E-02   6.38810396E-02  0.956380069      0.939469635      0.351812601       0.00000000      0.300000012       4.09781933E-08
   8.21698159E-02   8.53464007E-02  0.956380069      0.939469635      0.351812601       0.00000000      0.300000012       4.09781933E-08
   8.21161047E-02  0.106811762      0.956380069      0.939469635      0.351812601       0.00000000      0.300000012       4.09781933E-08
   8.20623860E-02  0.128277123      0.956380069      0.939469635      0.351812601       0.00000000      0.300000012       4.09781933E-08
   8.20086673E-02  0.149742484      0.956380069      0.939469635      0.351812601       0.00000000      0.300000012       4.09781933E-08
   8.19549561E-02  0.171207845      0.956380069      0.939469635      0.351812601       0.00000000      0.300000012       4.09781933E-08
   8.19012374E-02  0.192673206      0.956380069      0.939469635      0.351812601       0.00000000      0.300000012       4.09781933E-08
   8.18475187E-02  0.214138567      0.956380069      0.939469635      0.351812601       0.00000000      0.300000012       4.09781933E-08
   8.17938000E-02  0.235603914      0.956380069      0.939469635      0.351812601       0.00000000      0.300000012       4.09781933E-08
   8.17400888E-02  0.257069290      0.956380069      0.939469635      0.351812601       0.00000000      0.300000012       4.09781933E-08
   8.16863701E-02  0.278534651      0.956380069      0.939469635      0.351812601       0.00000000      0.300000012       4.09781933E-08
  0.102913015       2.07400341E-02  0.956380069      0.939469635      0.351812601       0.00000000      0.300000012       4.09781933E-08
  0.102845922       4.22215685E-02  0.956380069      0.939469635      0.351812601       0.00000000      0.300000012       4.09781933E-08
  0.102778830       6.37031049E-02  0.956380069      0.939469635      0.351812601       0.00000000      0.300000012       4.09781933E-08
  0.102711737       8.51846412E-02  0.956380069      0.939469635      0.351812601       0.00000000      0.300000012       4.09781933E-08
  0.102644645      0.106666178      0.956380069      0.939469635      0.351812601       0.00000000      0.300000012       4.09781933E-08
  0.102577560      0.128147706      0.956380069      0.939469635      0.351812601       0.00000000      0.300000012       4.09781933E-08
  0.102510467      0.149629250      0.956380069      0.939469635      0.351812601       0.00000000      0.300000012       4.09781933E-08
  0.102443375      0.171110779      0.956380069      0.939469635      0.351812601       0.00000000      0.300000012       4.09781933E-08
  0.102376282      0.192592323      0.956380069      0.939469635      0.351812601       0.00000000      0.300000012       4.09781933E-08
  0.102309190      0.214073852      0.956380069      0.939469635      0.351812601       0.00000000      0.300000012       4.09781933E-08
  0.102242097      0.235555395      0.956380069      0.939469635      0.351812601       0.00000000      0.300000012       4.09781933E-08
  0.102175005      0.257036924      0.956380069      0.939469635      0.351812601       0.00000000      0.300000012       4.09781933E-08
  0.102107912      0.278518468      0.956380069      0.939469635      0.351812601       0.00000000      0.300000012       4.09781933E-08
  0.123494908       2.05156635E-02  0.956380069      0.939469635      0.351812601       0.00000000      0.300000012       4.09781933E-08
  0.123414457       4.20144573E-02  0.956380069      0.939469635      0.351812601       0.00000000      0.300000012       4.09781933E-08
  0.123333998       6.35132566E-02  0.956380069      0.939469635      0.351812601       0.00000000      0.300000012       4.09781933E-08
  0.123253539       8.50120485E-02  0.956380069      0.939469635      0.351812601       0.00000000      0.300000012       4.09781933E-08
  0.123173088      0.106510840      0.956380069      0.939469635      0.351812601       0.00000000      0.300000012       4.09781933E-08
  0.123092629      0.128009632      0.956380069      0.939469635      0.351812601       0.00000000      0.300000012       4.09781933E-08
  0.123012170      0.149508432      0.956380069      0.939469635      0.351812601       0.00000000      0.300000012       4.09781933E-08
  0.122931719      0.171007231      0.956380069      0.939469635      0.351812601       0.00000000      0.300000012       4.09781933E-08
  0.122851260      0.192506030      0.956380069      0.939469635      0.351812601       0.00000000      0.300000012       4.09781933E-08
  0.122770801      0.214004815      0.956380069      0.939469635      0.351812601       0.00000000      0.300000012       4.09781933E-08
  0.122690350      0.235503614      0.956380069      0.939469635      0.351812601       0.00000000      0.300000012       4.09781933E-08
  0.122609891      0.257002413      0.956380069      0.939469635      0.351812601       0.00000000      0.300000012       4.09781933E-08
  0.122529432      0.278501213      0.956380069      0.939469635      0.351812601       0.00000000      0.300000012       4.09781933E-08
  0.144076750       2.02865545E-02  0.956380069      0.939469635      0.351812601       0.00000000      0.300000012       4.09781933E-08
  0.143982932       4.18029726E-02  0.956380069      0.939469635      0.351812601       0.00000000      0.300000012       4.09781933E-08
  0.143889114       6.33193925E-02  0.956380069      0.939469635      0.351812601       0.00000000      0.300000012       4.09781933E-08
  0.143795297       8.48358124E-02  0.956380069      0.939469635      0.351812601       0.00000000      0.300000012       4.09781933E-08
  0.143701479      0.106352232      0.956380069      0.939469635      0.351812601       0.00000000      0.300000012       4.09781933E-08
  0.143607661      0.127868652      0.956380069      0.939469635      0.351812601       0.00000000      0.300000012       4.09781933E-08
  0.143513858      0.149385065      0.956380069      0.939469635      0.351812601       0.00000000      0.300000012       4.09781933E-08
  0.143420041      0.170901492      0.956380069      0.939469635      0.351812601       0.00000000      0.300000012       4.09781933E-08
  0.143326223      0.192417905      0.956380069      0.939469635      0.351812601       0.00000000      0.300000012       4.09781933E-08
  0.143232405      0.213934317      0.956380069      0.939469635      0.351812601       0.00000000      0.300000012       4.09781933E-08
  0.143138587      0.235450745      0.956380069      0.939469635      0.351812601       0.00000000      0.300000012       4.09781933E-08
  0.143044770      0.256967157      0.956380069      0.939469635      0.351812601       0.00000000      0.300000012       4.09781933E-08
  0.142950952      0.278483570      0.956380069      0.939469635      0.351812601       0.00000000      0.300000012       4.09781933E-08