 title = "grid"
                                   variables = "x","y","rho","P","u","v","M","S"
 zone n=         750  e =        1372  et=quadrilateral, f=fepoint
   0.00000000       0.00000000      0.959523201      0.943795025      0.338403434      -5.33732527E-04  0.288376689       5.58793545E-08
   1.00000000       0.00000000      0.948505342      0.939525902      0.299712598       7.09751563E-04  0.254511654       1.16350939E-02
   1.00000000      0.300000012      0.956394792      0.939536810      0.355487436       6.55863096E-06  0.303125143       5.00176102E-05
   0.00000000      0.300000012      0.959926307      0.944350302      0.336489022       3.06751572E-05  0.286720842       1.89989805E-07
   1.00000000       2.14285720E-02  0.951005757      0.939601719      0.311926246       7.18360010E-04  0.265221506       8.03002343E-03
   1.00000000       4.28571440E-02  0.953582287      0.939641416      0.326307088       6.48783869E-04  0.277818590       4.28443588E-03
   1.00000000       6.42857179E-02  0.954955101      0.939657986      0.336277515       5.17537817E-04  0.286510736       2.28799880E-03
   1.00000000       8.57142881E-02  0.955685675      0.939659655      0.343284786       3.72591865E-04  0.292592406       1.21918693E-03
   1.00000000      0.107142858      0.956067383      0.939652383      0.348098725       2.39499190E-04  0.296755761       6.52352348E-04
   1.00000000      0.128571436      0.956258357      0.939639807      0.351259500       1.30070010E-04  0.299482197       3.59321013E-04
   1.00000000      0.150000006      0.956349075      0.939624548      0.353212088       4.80735835E-05  0.301163673       2.10314989E-04
   1.00000000      0.171428576      0.956388950      0.939608216      0.354337543      -7.09541337E-06  0.302132219       1.34542584E-04
   1.00000000      0.192857146      0.956404388      0.939592481      0.354939073      -3.82935905E-05  0.302650094       9.52053815E-05
   1.00000000      0.214285716      0.956408918      0.939578295      0.355234891      -4.97106885E-05  0.302905321       7.34683126E-05
   1.00000000      0.235714287      0.956408322      0.939566433      0.355370134      -4.60646479E-05  0.303022474       6.16982579E-05
   1.00000000      0.257142872      0.956406116      0.939556897      0.355435014      -3.20806321E-05  0.303078979       5.48008829E-05
   1.00000000      0.278571427      0.956402779      0.939548790      0.355482101      -1.04037572E-05  0.303119898       5.10308892E-05
  0.979591846      0.300000012      0.956422985      0.939575434      0.355506331       9.86976488E-07  0.303139448       4.98834997E-05
  0.959183693      0.300000012      0.956480205      0.939653516      0.355533093       1.26743707E-05  0.303158760       4.91756946E-05
  0.938775539      0.300000012      0.956522524      0.939711034      0.355564445       1.82205476E-05  0.303182930       4.84734774E-05
  0.918367326      0.300000012      0.956550777      0.939749002      0.355607271       1.82026797E-05  0.303217798       4.75142151E-05
  0.897959173      0.300000012      0.956566811      0.939770043      0.355666429       1.26498389E-05  0.303267419       4.64599580E-05
  0.877551019      0.300000012      0.956572294      0.939777195      0.355747193       1.15189744E-06  0.303335965       4.60483134E-05
  0.857142866      0.300000012      0.956568003      0.939770639      0.355856776      -1.69296418E-05  0.303429812       4.53572720E-05
  0.836734712      0.300000012      0.956552505      0.939748585      0.356005222      -4.19685493E-05  0.303557456       4.45507467E-05
  0.816326559      0.300000012      0.956522048      0.939705491      0.356206506      -7.45983416E-05  0.303731233       4.32748348E-05
  0.795918345      0.300000012      0.956469953      0.939632833      0.356478006      -1.15043345E-04  0.303966224       4.21795994E-05
  0.775510192      0.300000012      0.956387937      0.939518988      0.356840014      -1.63495570E-04  0.304280341       4.10396606E-05
  0.755102038      0.300000012      0.956266463      0.939350665      0.357314259      -2.19442198E-04  0.304692686       3.97413969E-05
  0.734693885      0.300000012      0.956096113      0.939114809      0.357921422      -2.81735818E-04  0.305221558       3.79867852E-05
  0.714285731      0.300000012      0.955868542      0.938800275      0.358679116      -3.48161208E-04  0.305882603       3.63010913E-05
  0.693877578      0.300000012      0.955578625      0.938399732      0.359597236      -4.15173912E-04  0.306684583       3.42577696E-05
  0.673469365      0.300000012      0.955225468      0.937912047      0.360673964      -4.77172609E-04  0.307625979       3.19499522E-05
  0.653061211      0.300000012      0.954814851      0.937345624      0.361889213      -5.26249234E-04  0.308689445       2.97408551E-05
  0.632653058      0.300000012      0.954361022      0.936719835      0.363198072      -5.51239995E-04  0.309835732       2.74814665E-05
  0.612244904      0.300000012      0.953889072      0.936069131      0.364522785      -5.38047811E-04  0.310996920       2.51103193E-05
  0.591836751      0.300000012      0.953435481      0.935444295      0.365745515      -4.70148894E-04  0.312070012       2.32122838E-05
  0.571428597      0.300000012      0.953045905      0.934907496      0.366710305      -3.35857883E-04  0.312918991       2.13719904E-05
  0.551020384      0.300000012      0.952760041      0.934513807      0.367252916      -1.42781311E-04  0.313400835       2.02171504E-05
  0.530612230      0.300000012      0.952595711      0.934287369      0.367260009       7.31381806E-05  0.313417822       1.93957239E-05
  0.510204077      0.300000012      0.952543914      0.934215605      0.366725415       2.63640221E-04  0.312965214       1.86413527E-05
  0.489795923      0.300000012      0.952592671      0.934281945      0.365715027       4.19733959E-04  0.312099963       1.80602074E-05
  0.469387770      0.300000012      0.952735007      0.934476435      0.364297181       5.59958105E-04  0.310881048       1.69873238E-05
  0.448979586      0.300000012      0.952959359      0.934783518      0.362533182       6.90695306E-04  0.309361458       1.58920884E-05
  0.428571433      0.300000012      0.953247726      0.935177922      0.360485971       8.04633542E-04  0.307596385       1.41430646E-05
  0.408163279      0.300000012      0.953566074      0.935613275      0.358262300       8.66121089E-04  0.305678964       1.21127814E-05
  0.387755096      0.300000012      0.953884125      0.936048150      0.355995595       8.66473885E-04  0.303725064       9.92789865E-06
  0.367346942      0.300000012      0.954183757      0.936457872      0.353797525       8.20214977E-04  0.301831007       7.83242285E-06
  0.346938789      0.300000012      0.954457998      0.936833203      0.351739824       7.45631580E-04  0.300058424       6.27897680E-06
  0.326530606      0.300000012      0.954708815      0.937176347      0.349858016       6.58658333E-04  0.298437506       4.65475023E-06
  0.306122452      0.300000012      0.954942703      0.937496781      0.348162115       5.69470110E-04  0.296976328       3.57627869E-06
  0.285714298      0.300000012      0.955168188      0.937805891      0.346646994       4.83598531E-04  0.295670003       2.68965960E-06
  0.265306115      0.300000012      0.955394685      0.938116312      0.345299244       4.04490886E-04  0.294506580       1.70059502E-06
  0.244897962      0.300000012      0.955631256      0.938441217      0.344100803       3.33954231E-04  0.293469876       1.36531889E-06
  0.224489793      0.300000012      0.955886185      0.938791573      0.343032002       2.72751116E-04  0.292542696       1.17905438E-06
  0.204081640      0.300000012      0.956166565      0.939176857      0.342073649       2.20944567E-04  0.291708291       9.42498446E-07
  0.183673471      0.300000012      0.956476867      0.939603448      0.341208547       1.78175440E-04  0.290951669       7.50645995E-07
  0.163265303      0.300000012      0.956819296      0.940074265      0.340421915       1.43844038E-04  0.290260166       6.53788447E-07
  0.142857149      0.300000012      0.957192957      0.940588295      0.339702129       1.17190815E-04  0.289623797       6.78002834E-07
  0.122448981      0.300000012      0.957594097      0.941140294      0.339041084       9.72438429E-05  0.289035946       7.86036253E-07
  0.102040820      0.300000012      0.958015859      0.941720605      0.338435203       8.26347241E-05  0.288494021       6.78002834E-07
   8.16326514E-02  0.300000012      0.958448648      0.942315996      0.337885976       7.17315852E-05  0.287999898       3.91155481E-07
   6.12244904E-02  0.300000012      0.958879292      0.942908883      0.337399989       6.27413901E-05  0.287559807       5.14090061E-07
   4.08163257E-02  0.300000012      0.959293664      0.943479300      0.336988449       5.41316804E-05  0.287184238       3.48314643E-07
   2.04081628E-02  0.300000012      0.959675610      0.944005072      0.336665511       4.45397418E-05  0.286886215       2.06753612E-07
   0.00000000      0.278571427      0.959950745      0.944383919      0.336457461       1.06853950E-05  0.286692500       1.19209290E-07
   0.00000000      0.257142872      0.959958375      0.944394350      0.336439937      -5.64543325E-06  0.286677152       2.79396772E-08
   0.00000000      0.235714287      0.959962189      0.944399655      0.336439669      -1.94691984E-05  0.286676645       7.07805157E-08
   0.00000000      0.214285716      0.959963620      0.944401562      0.336452872      -3.46323795E-05  0.286687851       2.42143869E-08
   0.00000000      0.192857146      0.959961951      0.944399178      0.336480379      -5.36914304E-05  0.286711395      -6.70552254E-08
   0.00000000      0.171428576      0.959955871      0.944390714      0.336526155      -7.88164762E-05  0.286750793      -1.30385160E-07
   0.00000000      0.150000006      0.959943593      0.944373906      0.336596310      -1.12141322E-04  0.286811322      -5.21540642E-08
   0.00000000      0.128571436      0.959922969      0.944345415      0.336699426      -1.55864167E-04  0.286900401      -1.11758709E-07
   0.00000000      0.107142858      0.959890664      0.944301188      0.336847097      -2.11972263E-04  0.287028164       1.30385160E-07
   0.00000000       8.57142881E-02  0.959843218      0.944235861      0.337053835      -2.81825196E-04  0.287207186       1.49011612E-07
   0.00000000       6.42857179E-02  0.959776402      0.944143832      0.337337583      -3.64805484E-04  0.287453055       1.15483999E-07
   0.00000000       4.28571440E-02  0.959685624      0.944018900      0.337720126      -4.55030648E-04  0.287784547       2.01165676E-07
   0.00000000       2.14285720E-02  0.959566653      0.943854928      0.338228464      -5.33444108E-04  0.288224995       1.21071935E-07
   2.05965936E-02  -4.13848684E-05  0.959462464      0.943711579      0.338418365      -8.95694364E-04  0.288393706       2.17929482E-07
   4.11929786E-02  -1.51938104E-04  0.959318697      0.943513930      0.338271677      -1.79873011E-03  0.288280368       6.01634383E-07
   6.17889874E-02  -3.14505887E-04  0.959233284      0.943396688      0.337906837      -2.51952978E-03  0.287978441       9.31322575E-07
   8.23846832E-02  -5.15037973E-04  0.959184647      0.943330050      0.337408960      -3.04532866E-03  0.287560731       1.27218664E-06
  0.102980107      -7.41501746E-04  0.959172189      0.943313658      0.336810768      -3.39077529E-03  0.287054360       2.11037695E-06
  0.123575367      -9.83132166E-04  0.959202945      0.943356633      0.336119294      -3.56766442E-03  0.286464751       2.81073153E-06
  0.144170567      -1.22986489E-03  0.959286273      0.943472326      0.335327148      -3.58140934E-03  0.285784721       3.81842256E-06
  0.164765805      -1.47186557E-03  0.959432065      0.943673670      0.334418058      -3.43109341E-03  0.284999907       4.40888107E-06
  0.185361236      -1.69908674E-03  0.959648669      0.943972647      0.333368987      -3.10906861E-03  0.284090370       5.12041152E-06
  0.205956906      -1.90079887E-03  0.959942639      0.944378495      0.332152039      -2.60024238E-03  0.283032179       6.23054802E-06
  0.226552933      -2.06502923E-03  0.960319042      0.944898188      0.330734074      -1.88019127E-03  0.281797528       7.53812492E-06
  0.247149289      -2.17781961E-03  0.960781515      0.945536375      0.329074830      -9.12140065E-04  0.280353218       8.65943730E-06
  0.267745912      -2.22215871E-03  0.961332798      0.946297467      0.327123433       3.59058846E-04  0.278657615       1.01774931E-05
  0.288342476      -2.17632344E-03  0.961977243      0.947187960      0.324811757       2.01755506E-03  0.276656181       1.25691295E-05
  0.308938444      -2.01110821E-03  0.962722957      0.948219419      0.322046250       4.19641379E-03  0.274275720       1.60690397E-05
  0.329532504      -1.68479502E-03  0.963584423      0.949412465      0.318697274       7.11862510E-03  0.271418899       2.12639570E-05
  0.350121617      -1.13302853E-03  0.964584649      0.950800359      0.314595163       1.11951185E-02  0.267971337       2.95899808E-05
  0.370698810      -2.45296280E-04  0.965772569      0.952455342      0.309585243       1.78097449E-02  0.263905704       4.56403941E-05
  0.391233593       1.31973682E-03  0.967015266      0.954210877      0.304469496       2.99971756E-02  0.260298640       8.67694616E-05
  0.411623418       4.19568829E-03  0.967517555      0.955007851      0.302222639       5.00974581E-02  0.260600388       1.94696710E-04
  0.431661844       8.91561527E-03  0.965831041      0.952979028      0.307568371       7.94915408E-02  0.270288497       5.10545447E-04
  0.451005518       1.59534402E-02  0.959003270      0.944228470      0.331184626      0.114896782      0.298576832       1.21796690E-03
  0.469851911       2.42583062E-02  0.942843139      0.923107922      0.384752780      0.124846473      0.345501095       2.38836557E-03
  0.489723206       2.94313785E-02  0.925636947      0.900649965      0.433393627       7.26748034E-02  0.376515210       3.54389101E-03
  0.510276794       2.94313785E-02  0.917492568      0.891610861      0.435609728      -1.62632950E-02  0.373722821       5.82965463E-03
  0.530148089       2.42583044E-02  0.918868721      0.896224439      0.394731849      -9.33907926E-02  0.347123176       8.89240578E-03
  0.548994482       1.59534402E-02  0.929116905      0.912308276      0.339462161     -0.116417371      0.306081682       1.11516807E-02
  0.568338156       8.91561527E-03  0.942940176      0.932088196      0.297747761      -8.78300071E-02  0.263885558       1.19256023E-02
  0.588376582       4.19568783E-03  0.950351954      0.942599714      0.276969135      -5.55927344E-02  0.239730194       1.21784396E-02
  0.608766437       1.31973659E-03  0.953022420      0.946351767      0.270416617      -3.37036736E-02  0.231122315       1.22226262E-02
  0.629301190      -2.45296367E-04  0.953720391      0.947240472      0.270874888      -1.99558232E-02  0.230335325       1.21363858E-02
  0.649878383      -1.13302865E-03  0.953654706      0.947006524      0.273725003      -1.23602189E-02  0.232387021       1.19858040E-02
  0.670467496      -1.68479513E-03  0.953465462      0.946607888      0.276587725      -7.96361733E-03  0.234701708       1.18425908E-02
  0.691061556      -2.01110821E-03  0.953300714      0.946286500      0.279004276      -4.95108869E-03  0.236711234       1.17449053E-02
  0.711657524      -2.17632344E-03  0.953115761      0.945995569      0.281084865      -2.75327289E-03  0.238463849       1.17090950E-02
  0.732254088      -2.22215871E-03  0.952886283      0.945697129      0.282933384      -1.09630101E-03  0.240031347       1.17306300E-02
  0.752850711      -2.17781961E-03  0.952606618      0.945363939      0.284631670       1.73394496E-04  0.241477445       1.17892651E-02
  0.773447096      -2.06502923E-03  0.952283442      0.944978654      0.286240309       1.14932784E-03  0.242852390       1.18566267E-02
  0.794043124      -1.90079887E-03  0.951927245      0.944533765      0.287800878       1.89122139E-03  0.244191542       1.19095091E-02
  0.814638793      -1.69908674E-03  0.951546967      0.944030344      0.289337903       2.43811915E-03  0.245515466       1.19357938E-02
  0.835234165      -1.47186557E-03  0.951149404      0.943475842      0.290861785       2.81553832E-03  0.246832296       1.19332643E-02
  0.855829418      -1.22986489E-03  0.950741470      0.942884266      0.292370170       3.03925946E-03  0.248138711       1.19065922E-02
  0.876424611      -9.83132166E-04  0.950331688      0.942272604      0.293849915       3.11779906E-03  0.249422312       1.18611995E-02
  0.897019863      -7.41501746E-04  0.949929893      0.941661179      0.295277357       3.05343093E-03  0.250661582       1.18041905E-02
  0.917615294      -5.15037973E-04  0.949546754      0.941072047      0.296618015       2.84331059E-03  0.251825780       1.17431097E-02
  0.938211024      -3.14505887E-04  0.949193239      0.940529168      0.297822475       2.47936789E-03  0.252871364       1.16873691E-02
  0.958807051      -1.51938104E-04  0.948882282      0.940059781      0.298819661       1.94854441E-03  0.253736436       1.16469264E-02
  0.979403377      -4.13848684E-05  0.948631763      0.939696848      0.299501389       1.23247935E-03  0.254327565       1.16304746E-02
   2.05831341E-02   2.13901419E-02  0.959504366      0.943769276      0.338109642      -9.56473697E-04  0.288128257       1.97440386E-07
   2.05696747E-02   4.28216718E-02  0.959619343      0.943927526      0.337635309      -7.41468568E-04  0.287716657       1.50874257E-07
   2.05562152E-02   6.42531961E-02  0.959699810      0.944038212      0.337289542      -5.64987655E-04  0.287416965      -9.31322575E-09
   2.05427557E-02   8.56847242E-02  0.959753692      0.944112420      0.337041110      -4.22511861E-04  0.287201881       2.04890966E-08
   2.05292962E-02  0.107116252      0.959787071      0.944158316      0.336866498      -3.09586118E-04  0.287050962      -8.19563866E-08
   2.05158386E-02  0.128547773      0.959804773      0.944182694      0.336747408      -2.21779919E-04  0.286948383      -6.33299351E-08
   2.05023792E-02  0.149979308      0.959811211      0.944191515      0.336668998      -1.54836744E-04  0.286881149      -1.50874257E-07
   2.04889197E-02  0.171410829      0.959809721      0.944189489      0.336619794      -1.04640421E-04  0.286839277      -5.58793545E-08
   2.04754602E-02  0.192842364      0.959803104      0.944180310      0.336591423      -6.74720868E-05  0.286815524      -1.52736902E-07
   2.04620007E-02  0.214273885      0.959793508      0.944167256      0.336577713      -3.98408483E-05  0.286804378       3.16649675E-08
   2.04485413E-02  0.235705420      0.959782600      0.944152296      0.336574733      -1.82000567E-05  0.286802471       9.31322575E-08
   2.04350818E-02  0.257136941      0.959770977      0.944136262      0.336581200       1.60497848E-06  0.286808699       1.67638063E-08
   2.04216223E-02  0.278568476      0.959758282      0.944118798      0.336598366       2.59541321E-05  0.286824077       3.53902578E-08
   4.11660746E-02   2.12874860E-02  0.959371328      0.943586290      0.337922305      -1.67199003E-03  0.287978947       4.69386578E-07
   4.11391705E-02   4.27269116E-02  0.959469140      0.943720937      0.337531835      -1.25844928E-03  0.287638783       4.07919288E-07
   4.11122665E-02   6.41663373E-02  0.959529579      0.943804026      0.337256223      -9.34939133E-04  0.287399441       2.29105353E-07
   4.10853624E-02   8.56057554E-02  0.959560812      0.943846941      0.337069869      -6.81538542E-04  0.287238240       1.97440386E-07
   4.10584584E-02  0.107045181      0.959569693      0.943858862      0.336951137      -4.84585558E-04  0.287136316      -1.88127160E-07
   4.10315543E-02  0.128484607      0.959561646      0.943847895      0.336882383      -3.33804957E-04  0.287078023      -3.72529030E-08
   4.10046503E-02  0.149924025      0.959542274      0.943821192      0.336848468      -2.20500500E-04  0.287050217      -8.75443220E-08
   4.09777500E-02  0.171363458      0.959515572      0.943784535      0.336838037      -1.37192183E-04  0.287042856       7.45058060E-09
   4.09508459E-02  0.192802876      0.959485769      0.943743467      0.336842000      -7.73816282E-05  0.287047982       2.23517418E-08
   4.09239419E-02  0.214242309      0.959455669      0.943702161      0.336853623      -3.50380178E-05  0.287059665       1.35973096E-07
   4.08970378E-02  0.235681728      0.959427834      0.943663895      0.336868435      -4.39892756E-06  0.287073940       2.38418579E-07
   4.08701338E-02  0.257121146      0.959404171      0.943631291      0.336883396       2.02136107E-05  0.287088126       2.27242708E-07
   4.08432297E-02  0.278560579      0.959386170      0.943606436      0.336897880       4.37251656E-05  0.287101567       1.60187483E-07
   6.17486648E-02   2.11365297E-02  0.959274471      0.943453252      0.337583333      -2.24777055E-03  0.287698686       7.86036253E-07
   6.17083460E-02   4.25875671E-02  0.959339321      0.943542302      0.337321252      -1.68260350E-03  0.287468672       5.36441803E-07
   6.16680235E-02   6.40386045E-02  0.959368050      0.943581700      0.337153584      -1.23364490E-03  0.287322432       3.79979610E-07
   6.16277009E-02   8.54896381E-02  0.959367275      0.943580568      0.337061137      -8.80164967E-04  0.287242740       2.66358256E-07
   6.15873821E-02  0.106940672      0.959343672      0.943547845      0.337025464      -6.05805020E-04  0.287213296       5.40167093E-08
   6.15470596E-02  0.128391713      0.959303379      0.943492353      0.337030023      -3.97034513E-04  0.287219316       7.63684511E-08
   6.15067370E-02  0.149842754      0.959252179      0.943422079      0.337060422      -2.42072201E-04  0.287248135       2.58907676E-07
   6.14664182E-02  0.171293780      0.959195912      0.943344653      0.337104887      -1.30747139E-04  0.287289351       3.37138772E-07
   6.14260957E-02  0.192744821      0.959139049      0.943266213      0.337154269      -5.39093853E-05  0.287334859       1.69500709E-07
   6.13857731E-02  0.214195862      0.959085763      0.943193078      0.337201387      -3.30338639E-06  0.287378162       3.81842256E-07
   6.13454543E-02  0.235646889      0.959039629      0.943129480      0.337241173       2.85256483E-05  0.287414849       3.72529030E-07
   6.13051318E-02  0.257097930      0.959003389      0.943079531      0.337270498       4.81305833E-05  0.287442029       2.57045031E-07
   6.12648092E-02  0.278548956      0.958978951      0.943045914      0.337288648       6.17186743E-05  0.287458956       3.46451998E-07
   8.23309720E-02   2.09503211E-02  0.959210396      0.943365693      0.337133646      -2.66107870E-03  0.287321746       1.51246786E-06
   8.22772533E-02   4.24156822E-02  0.959235847      0.943399966      0.337020129      -1.97983743E-03  0.287219614       6.40749931E-07
   8.22235346E-02   6.38810396E-02  0.959225416      0.943385541      0.336984903      -1.42955873E-03  0.287187845       6.50063157E-07
   8.21698159E-02   8.53464007E-02  0.959185541      0.943330407      0.337011218      -9.92817571E-04  0.287211388       3.53902578E-07
   8.21161047E-02  0.106811762      0.959122896      0.943244040      0.337081879      -6.53598574E-04  0.287274659       2.40281224E-07
   8.20623860E-02  0.128277123      0.959044397      0.943136036      0.337180763      -3.97096766E-04  0.287363261       3.05473804E-07
   8.20086673E-02  0.149742484      0.958956778      0.943015397      0.337293625      -2.09718128E-04  0.287464559       3.05473804E-07
   8.19549561E-02  0.171207845      0.958866358      0.942891061      0.337408721      -7.91056518E-05  0.287568033       4.37721610E-07
   8.19012374E-02  0.192673206      0.958779156      0.942771018      0.337516308       6.15261888E-06  0.287664920       4.50760126E-07
   8.18475187E-02  0.214138567      0.958700180      0.942662358      0.337609172       5.62774330E-05  0.287748814       5.56930900E-07
   8.17938000E-02  0.235603914      0.958633840      0.942571104      0.337682098       8.02471986E-05  0.287814945       5.81145287E-07
   8.17400888E-02  0.257069290      0.958583772      0.942501962      0.337731719       8.65371476E-05  0.287860274       3.91155481E-07
   8.16863701E-02  0.278534651      0.958552361      0.942458749      0.337756336       8.34302118E-05  0.287883133       3.98606062E-07
  0.102913015       2.07400341E-02  0.959183156      0.943328440      0.336591393      -2.91169761E-03  0.286863029       1.78441405E-06
  0.102845922       4.22215685E-02  0.959165394      0.943303525      0.336638838      -2.13569123E-03  0.286899596       1.31689012E-06
  0.102778830       6.37031049E-02  0.959110975      0.943228185      0.336754113      -1.50258082E-03  0.286998272       8.53091478E-07
  0.102711737       8.51846412E-02  0.959026575      0.943111837      0.336919487      -9.98397707E-04  0.287142664       6.40749931E-07
  0.102644645      0.106666178      0.958919525      0.942964375      0.337116718      -6.08284608E-04  0.287316412       5.64381480E-07
  0.102577560      0.128147706      0.958797872      0.942797005      0.337328821      -3.16859834E-04  0.287504107       7.09667802E-07
  0.102510467      0.149629250      0.958669364      0.942619920      0.337540984      -1.09087996E-04  0.287692577       4.89875674E-07
  0.102443375      0.171110779      0.958541214      0.942443669      0.337740988       2.93656958E-05  0.287870705       6.85453415E-07
  0.102376282      0.192592323      0.958420694      0.942277551      0.337918878       1.11948451E-04  0.288029611       4.15369868E-07
  0.102309190      0.214073852      0.958313465      0.942130208      0.338067293       1.50700260E-04  0.288162559       6.66826963E-07
  0.102242097      0.235555395      0.958225310      0.942008793      0.338180780       1.56668451E-04  0.288264573       6.09084964E-07
  0.102175005      0.257036924      0.958160102      0.941918969      0.338255435       1.40355914E-04  0.288332164       5.55068254E-07
  0.102107912      0.278518468      0.958120883      0.941865206      0.338288873       1.11914385E-04  0.288362980       7.22706318E-07
  0.123494908       2.05156635E-02  0.959200203      0.943352640      0.335958511      -3.00084148E-03  0.286323220       2.54996121E-06
  0.123414457       4.20144573E-02  0.959136665      0.943264306      0.336179078      -2.14006775E-03  0.286509514       1.65589154E-06
  0.123333998       6.35132566E-02  0.959034145      0.943122685      0.336461753      -1.43584935E-03  0.286753416       1.13062561E-06
  0.123253539       8.50120485E-02  0.958900511      0.942938566      0.336785078      -8.76914884E-04  0.287035316       9.90927219E-07
  0.123173088      0.106510840      0.958744586      0.942723811      0.337127805      -4.49129497E-04  0.287336081       8.73580575E-07
  0.123092629      0.128009632      0.958575428      0.942490637      0.337470889      -1.36261384E-04  0.287638456       5.28991222E-07
  0.123012170      0.149508432      0.958401859      0.942251921      0.337798238       7.83322030E-05  0.287927836       7.69272447E-07
  0.122931719      0.171007231      0.958232582      0.942019105      0.338096797       2.11121078E-04  0.288192540       9.01520252E-07
  0.122851260      0.192506030      0.958076000      0.941803396      0.338356107       2.77592713E-04  0.288423091       7.45058060E-07
  0.122770801      0.214004815      0.957938671      0.941614449      0.338568807       2.92040553E-04  0.288612664       7.80448318E-07
  0.122690350      0.235503614      0.957826793      0.941460669      0.338729233       2.67697760E-04  0.288756132       9.10833478E-07
  0.122609891      0.257002413      0.957745373      0.941348612      0.338833302       2.16715038E-04  0.288849711       8.95932317E-07
  0.122529432      0.278501213      0.957697928      0.941283166      0.338877887       1.51109285E-04  0.288890570       7.72997737E-07
  0.144076750       2.02865545E-02  0.959270775      0.943450689      0.335226744      -2.92604207E-03  0.285694718       3.48687172E-06
  0.143982932       4.18029726E-02  0.959158242      0.943294466      0.335635990      -1.98167958E-03  0.286044478       2.10478902E-06
  0.143889114       6.33193925E-02  0.959003448      0.943080664      0.336105138      -1.21205649E-03  0.286450505       1.39139593E-06
  0.143795297       8.48358124E-02  0.958816051      0.942822397      0.336606652      -6.07698632E-04  0.286887795       1.05239451E-06
  0.143701479      0.106352232      0.958606482      0.942533910      0.337114632      -1.54098569E-04  0.287332892       1.08964741E-06
  0.143607661      0.127868652      0.958385766      0.942229688      0.337606639       1.66521640E-04  0.287765563       7.00354576E-07
  0.143513858      0.149385065      0.958163738      0.941924155      0.338064820       3.73084127E-04  0.288169593       7.32019544E-07
  0.143420041      0.170901492      0.957950413      0.941630781      0.338474870       4.84709308E-04  0.288532048       9.70438123E-07
  0.143326223      0.192417905      0.957755029      0.941361845      0.338826299       5.19448891E-04  0.288843453       8.75443220E-07
  0.143232405      0.213934317      0.957585514      0.941128552      0.339111328       4.94132866E-04  0.289096624       8.51228833E-07
  0.143138587      0.235450745      0.957448781      0.940940499      0.339324623       4.23988095E-04  0.289286643       8.88481736E-07
  0.143044770      0.256967157      0.957350254      0.940804780      0.339462012       3.23138403E-04  0.289409667       7.61821866E-07
  0.142950952      0.278483570      0.957293987      0.940727353      0.339520454       2.04910859E-04  0.289462805       7.39470124E-07