 title = "grid"
                                   variables = "x","y","rho","P","u","v","M","S"
 zone n=         750  e =        1372  et=quadrilateral, f=fepoint
   0.00000000       0.00000000      0.958917856      0.942961514      0.341191322      -5.75127953E-04  0.290789217      -1.86264515E-09
   1.00000000       0.00000000      0.948483109      0.939397931      0.292236775       8.30939738E-04  0.248177618       1.15316994E-02
   1.00000000      0.300000012      0.956433117      0.939560711      0.352037519       2.70943601E-05  0.300185591       1.93677843E-05
   0.00000000      0.300000012      0.959296942      0.943483472      0.339801192      -2.28222302E-06  0.289581150       2.60770321E-08
   1.00000000       2.14285720E-02  0.950946033      0.939476430      0.304972351       1.05824484E-03  0.259318829       7.98462518E-03
   1.00000000       4.28571440E-02  0.953503549      0.939519525      0.320016086       1.18666107E-03  0.272470236       4.27027233E-03
   1.00000000       6.42857179E-02  0.954890311      0.939547837      0.330497265       1.17945985E-03  0.281594336       2.26577371E-03
   1.00000000       8.57142881E-02  0.955639541      0.939564943      0.337974668       1.09761651E-03  0.288075358       1.18592381E-03
   1.00000000      0.107142858      0.956037223      0.939574182      0.343226582       9.77702206E-04  0.292610943       6.13301992E-04
   1.00000000      0.128571436      0.956242085      0.939578593      0.346776724       8.42215086E-04  0.295668185       3.18035483E-04
   1.00000000      0.150000006      0.956344306      0.939579606      0.349054158       7.04989128E-04  0.297625422       1.69483945E-04
   1.00000000      0.171428576      0.956394494      0.939579070      0.350443095       5.73990808E-04  0.298817456       9.53916460E-05
   1.00000000      0.192857146      0.956418991      0.939577520      0.351247609       4.53092129E-04  0.299507380       5.79133630E-05
   1.00000000      0.214285716      0.956430674      0.939575493      0.351685882       3.43486492E-04  0.299883157       3.86442989E-05
   1.00000000      0.235714287      0.956436694      0.939573824      0.351905435       2.44412571E-04  0.300071478       2.80588865E-05
   1.00000000      0.257142872      0.956439435      0.939572155      0.351998061       1.54026115E-04  0.300151110       2.23107636E-05
   1.00000000      0.278571427      0.956440151      0.939570844      0.352018416       7.02828256E-05  0.300168782       1.98129565E-05
  0.979591846      0.300000012      0.956463754      0.939602911      0.351988733       4.30654545E-05  0.300142020       1.94124877E-05
  0.959183693      0.300000012      0.956529856      0.939693570      0.351909876       4.05254214E-05  0.300070703       1.91293657E-05
  0.938775539      0.300000012      0.956583202      0.939767122      0.351855636       3.51644267E-05  0.300021052       1.93361193E-05
  0.918367326      0.300000012      0.956620991      0.939819098      0.351833820       2.67578835E-05  0.300000101       1.92951411E-05
  0.897959173      0.300000012      0.956640422      0.939845979      0.351852775       1.48257186E-05  0.300015032       1.94907188E-05
  0.877551019      0.300000012      0.956638992      0.939844072      0.351921111      -1.05648974E-06  0.300073355       1.95391476E-05
  0.857142866      0.300000012      0.956613839      0.939809620      0.352049023      -2.15106575E-05  0.300183982       1.96769834E-05
  0.836734712      0.300000012      0.956562698      0.939739347      0.352246672      -4.69406259E-05  0.300355703       1.97757035E-05
  0.816326559      0.300000012      0.956483066      0.939630091      0.352525711      -7.79243783E-05  0.300598621       2.00755894E-05
  0.795918345      0.300000012      0.956372917      0.939478636      0.352897942      -1.14742899E-04  0.300922960       2.00793147E-05
  0.775510192      0.300000012      0.956230164      0.939282000      0.353375971      -1.57700284E-04  0.301339626       1.97961926E-05
  0.755102038      0.300000012      0.956052542      0.939037561      0.353972018      -2.06550816E-04  0.301859200       1.95782632E-05
  0.734693885      0.300000012      0.955838740      0.938743651      0.354697138      -2.60629575E-04  0.302491099       1.96471810E-05
  0.714285731      0.300000012      0.955588818      0.938399732      0.355559260      -3.18278268E-04  0.303242296       1.93025917E-05
  0.693877578      0.300000012      0.955303967      0.938007772      0.356560796      -3.76570359E-04  0.304114699       1.89170241E-05
  0.673469365      0.300000012      0.954988480      0.937573671      0.357694089      -4.30487882E-04  0.305101573       1.84569508E-05
  0.653061211      0.300000012      0.954651415      0.937110066      0.358936399      -4.72592132E-04  0.306182921       1.80657953E-05
  0.632653058      0.300000012      0.954308033      0.936637640      0.360242784      -4.92316904E-04  0.307319522       1.75237656E-05
  0.612244904      0.300000012      0.953982413      0.936189711      0.361537993      -4.76036977E-04  0.308445573       1.69537961E-05
  0.591836751      0.300000012      0.953709126      0.935813665      0.362709254      -4.07543324E-04  0.309462577       1.62571669E-05
  0.571428597      0.300000012      0.953529119      0.935565710      0.363608360      -2.75420898E-04  0.310241461       1.55232847E-05
  0.551020384      0.300000012      0.953477800      0.935494959      0.364079624      -8.70200165E-05  0.310646862       1.52438879E-05
  0.530612230      0.300000012      0.953567982      0.935618699      0.364018589       1.22431331E-04  0.310588896       1.51526183E-05
  0.510204077      0.300000012      0.953785956      0.935918272      0.363426715       3.05601949E-04  0.310069799       1.52587891E-05
  0.489795923      0.300000012      0.954114974      0.936370194      0.362375647       4.54573979E-04  0.309151888       1.51861459E-05
  0.469387770      0.300000012      0.954542100      0.936956525      0.360936731       5.88813389E-04  0.307897002       1.45826489E-05
  0.448979586      0.300000012      0.955049753      0.937653303      0.359173149       7.14808237E-04  0.306360364       1.35544688E-05
  0.428571433      0.300000012      0.955614269      0.938427985      0.357150763       8.24547606E-04  0.304599762       1.21053308E-05
  0.408163279      0.300000012      0.956197739      0.939228475      0.354978621       8.82681052E-04  0.302710712       1.02203339E-05
  0.387755096      0.300000012      0.956764400      0.940005839      0.352790803       8.80974869E-04  0.300809681       8.11368227E-06
  0.367346942      0.300000012      0.957290232      0.940727532      0.350698829       8.33822240E-04  0.298993260       6.34975731E-06
  0.346938789      0.300000012      0.957761943      0.941375077      0.348775625       7.59001647E-04  0.297324419       4.84660268E-06
  0.326530606      0.300000012      0.958174229      0.941941381      0.347058535       6.71720190E-04  0.295835197       3.68617475E-06
  0.306122452      0.300000012      0.958526909      0.942425668      0.345560342       5.81691624E-04  0.294536501       2.47173011E-06
  0.285714298      0.300000012      0.958821595      0.942830622      0.344278932       4.94075823E-04  0.293426245       1.72294676E-06
  0.265306115      0.300000012      0.959061384      0.943160176      0.343203783       4.11910645E-04  0.292495281       1.09709799E-06
  0.244897962      0.300000012      0.959250629      0.943420470      0.342318863       3.37073114E-04  0.291729540       8.58679414E-07
  0.224489793      0.300000012      0.959393799      0.943617582      0.341605484       2.70471850E-04  0.291112870       7.78585672E-07
  0.204081640      0.300000012      0.959495962      0.943758070      0.341043472       2.12476443E-04  0.290627718       6.18398190E-07
  0.183673471      0.300000012      0.959562063      0.943848729      0.340612680       1.62873403E-04  0.290256679       2.03028321E-07
  0.163265303      0.300000012      0.959596872      0.943896830      0.340293318       1.21368852E-04  0.289982349       4.33996320E-07
  0.142857149      0.300000012      0.959605455      0.943908453      0.340066463       8.73407553E-05  0.289788544       1.75088644E-07
  0.122448981      0.300000012      0.959592164      0.943890154      0.339914501       6.01497959E-05  0.289659858       2.06753612E-07
  0.102040820      0.300000012      0.959561646      0.943848073      0.339821398       3.90178502E-05  0.289582372       1.41561031E-07
   8.16326514E-02  0.300000012      0.959517717      0.943787634      0.339772999       2.31264312E-05  0.289543778       2.21654773E-07
   6.12244904E-02  0.300000012      0.959464550      0.943714261      0.339756995       1.16297506E-05  0.289533377       1.49011612E-08
   4.08163257E-02  0.300000012      0.959405184      0.943632424      0.339763165       3.62985134E-06  0.289542198      -8.19563866E-08
   2.04081628E-02  0.300000012      0.959342539      0.943546236      0.339782923      -1.56010481E-06  0.289562821      -2.98023224E-08
   0.00000000      0.278571427      0.959293664      0.943479002      0.339802235       7.13325744E-06  0.289582223       5.21540642E-08
   0.00000000      0.257142872      0.959295988      0.943482041      0.339793235       1.53905221E-05  0.289574414      -1.32247806E-07
   0.00000000      0.235714287      0.959300935      0.943488717      0.339771807       1.93225715E-05  0.289555907      -2.47731805E-07
   0.00000000      0.214285716      0.959307194      0.943497598      0.339742213       1.71140218E-05  0.289530247       6.14672899E-08
   0.00000000      0.192857146      0.959313631      0.943506539      0.339710355       6.76880018E-06  0.289502710       8.56816769E-08
   0.00000000      0.171428576      0.959318340      0.943512857      0.339684933      -1.37892503E-05  0.289480776      -4.47034836E-08
   0.00000000      0.150000006      0.959318161      0.943512499      0.339677036      -4.71082640E-05  0.289474070      -1.49011612E-07
   0.00000000      0.128571436      0.959309757      0.943500936      0.339700520      -9.51782349E-05  0.289494574      -1.67638063E-07
   0.00000000      0.107142858      0.959289253      0.943472922      0.339771897      -1.59832329E-04  0.289556652       8.56816769E-08
   0.00000000       8.57142881E-02  0.959252059      0.943421662      0.339910924      -2.42345122E-04  0.289677441       1.30385160E-08
   0.00000000       6.42857179E-02  0.959192932      0.943340242      0.340140611      -3.41987819E-04  0.289876819       1.86264515E-09
   0.00000000       4.28571440E-02  0.959106207      0.943220854      0.340488046      -4.52523382E-04  0.290178269       5.77419996E-08
   0.00000000       2.14285720E-02  0.958986104      0.943055570      0.340985119      -5.55942534E-04  0.290609270       6.70552254E-08
   2.05965936E-02  -4.13848684E-05  0.958964348      0.943025827      0.341104358      -9.33127478E-04  0.290712923       2.94297934E-07
   4.11929786E-02  -1.51938104E-04  0.959086180      0.943193972      0.340706319      -1.84543291E-03  0.290369421       7.67409801E-07
   6.17889874E-02  -3.14505887E-04  0.959294021      0.943480313      0.340020776      -2.56946310E-03  0.289776593       9.40635800E-07
   8.23846832E-02  -5.15037973E-04  0.959549904      0.943833113      0.339151025      -3.09323519E-03  0.289023638       1.39139593E-06
  0.102980107      -7.41501746E-04  0.959837139      0.944229186      0.338148177      -3.43198376E-03  0.288154542       1.95950270E-06
  0.123575367      -9.83132166E-04  0.960147381      0.944656968      0.337036967      -3.59850400E-03  0.287190557       2.46427953E-06
  0.144170567      -1.22986489E-03  0.960476398      0.945110738      0.335826844      -3.59968143E-03  0.286139846       3.05660069E-06
  0.164765805      -1.47186557E-03  0.960822880      0.945588708      0.334516644      -3.43624060E-03  0.285001516       3.73646617E-06
  0.185361236      -1.69908674E-03  0.961187780      0.946092248      0.333096236      -3.10227764E-03  0.283767015       4.44240868E-06
  0.205956906      -1.90079887E-03  0.961574018      0.946625650      0.331546813      -2.58397800E-03  0.282420516       5.66616654E-06
  0.226552933      -2.06502923E-03  0.961987197      0.947196126      0.329839915      -1.85839471E-03  0.280938208       6.66268170E-06
  0.247149289      -2.17781961E-03  0.962434947      0.947814584      0.327935278      -8.89487739E-04  0.279286325       7.93486834E-06
  0.267745912      -2.22215871E-03  0.962928057      0.948496461      0.325777113       3.77136836E-04  0.277418792       1.00284815E-05
  0.288342476      -2.17632344E-03  0.963481724      0.949262261      0.323289365       2.02505384E-03  0.275273591       1.23083591E-05
  0.308938444      -2.01110821E-03  0.964115858      0.950140297      0.320368469       4.18619439E-03  0.272768110       1.57020986E-05
  0.329532504      -1.68479502E-03  0.964856923      0.951167643      0.316874772       7.08199246E-03  0.269795686       2.07051635E-05
  0.350121617      -1.13302853E-03  0.965738714      0.952392340      0.312630564       1.11201489E-02  0.266234219       2.85208225E-05
  0.370698810      -2.45296280E-04  0.966817856      0.953897417      0.307476401       1.76740438E-02  0.262050837       4.40571457E-05
  0.391233593       1.31973682E-03  0.967968464      0.955525994      0.302206278       2.97522768E-02  0.258311272       8.47559422E-05
  0.411623418       4.19568829E-03  0.968409538      0.956235945      0.299771816       4.96646129E-02  0.258436412       1.89734623E-04
  0.431661844       8.91561527E-03  0.966715395      0.954188585      0.304856658       7.87635744E-02  0.267852336       4.97661531E-04
  0.451005518       1.59534402E-02  0.959988296      0.945557892      0.328020781      0.113774858      0.295661479       1.18766725E-03
  0.469851911       2.42583062E-02  0.944130898      0.924815893      0.380747110      0.123505555      0.341810584       2.32603401E-03
  0.489723206       2.94313785E-02  0.927235425      0.902743638      0.428516686       7.17755482E-02  0.372155815       3.45019251E-03
  0.510276794       2.94313785E-02  0.919108570      0.893676877      0.430547714      -1.61970053E-02  0.369281501       5.68041205E-03
  0.530148089       2.42583044E-02  0.920188487      0.897829294      0.390215784      -9.24229994E-02  0.343110949       8.67213309E-03
  0.548994482       1.59534402E-02  0.929937363      0.913184702      0.335737258     -0.115116030      0.302704692       1.08761173E-02
  0.568338156       8.91561527E-03  0.943212032      0.932179868      0.294649541      -8.67908299E-02  0.261134356       1.16203204E-02
  0.588376582       4.19568783E-03  0.950202644      0.942090571      0.274214715      -5.48975430E-02  0.237367794       1.18581066E-02
  0.608766437       1.31973659E-03  0.952529132      0.945376992      0.267794788      -3.32310423E-02  0.228924900       1.19169289E-02
  0.629301190      -2.45296367E-04  0.952888727      0.945848882      0.268302023      -1.96255036E-02  0.228206947       1.18875615E-02
  0.649878383      -1.13302865E-03  0.952478647      0.945221961      0.271186084      -1.21142715E-02  0.230301648       1.18271448E-02
  0.670467496      -1.68479513E-03  0.951959550      0.944453776      0.274091274      -7.77486898E-03  0.232661605       1.17772799E-02
  0.691061556      -2.01110821E-03  0.951514781      0.943802655      0.276554346      -4.80992533E-03  0.234719574       1.17418999E-02
  0.711657524      -2.17632344E-03  0.951131046      0.943243444      0.278667748      -2.65420694E-03  0.236510649       1.17139434E-02
  0.732254088      -2.22215871E-03  0.950797319      0.942755520      0.280515164      -1.03423418E-03  0.238089204       1.16878105E-02
  0.752850711      -2.17781961E-03  0.950504780      0.942323446      0.282158524       2.03922595E-04  0.239500523       1.16602601E-02
  0.773447096      -2.06502923E-03  0.950246155      0.941935182      0.283641756       1.15398923E-03  0.240778297       1.16290580E-02
  0.794043124      -1.90079887E-03  0.950014412      0.941582024      0.284995794       1.87568227E-03  0.241946772       1.15955267E-02
  0.814638793      -1.69908674E-03  0.949803174      0.941256642      0.286241919       2.40809796E-03  0.243022993       1.15612550E-02
  0.835234165      -1.47186557E-03  0.949606895      0.940953851      0.287393868       2.77652545E-03  0.244017810       1.15288589E-02
  0.855829418      -1.22986489E-03  0.949420750      0.940670073      0.288458675       2.99691292E-03  0.244936630       1.15017099E-02
  0.876424611      -9.83132166E-04  0.949241340      0.940403402      0.289436847       3.07803415E-03  0.245779455       1.14827175E-02
  0.897019863      -7.41501746E-04  0.949067354      0.940153360      0.290322006       3.02232336E-03  0.246540725       1.14734313E-02
  0.917615294      -5.15037973E-04  0.948900521      0.939922571      0.291098118       2.82724039E-03  0.247206658       1.14740841E-02
  0.938211024      -3.14505887E-04  0.948745906      0.939716578      0.291735858       2.48476304E-03  0.247752517       1.14829885E-02
  0.958807051      -1.51938104E-04  0.948612273      0.939545751      0.292186409       1.98093173E-03  0.248136923       1.14984205E-02
  0.979403377      -4.13848684E-05  0.948514700      0.939428389      0.292367935       1.29578495E-03  0.248290524       1.15174688E-02
   2.05831341E-02   2.13901419E-02  0.959063113      0.943161905      0.340739012      -9.72570269E-04  0.290395617       4.50760126E-07
   2.05696747E-02   4.28216718E-02  0.959179819      0.943322301      0.340280682      -7.25111866E-04  0.289997458       1.45286322E-07
   2.05562152E-02   6.42531961E-02  0.959259748      0.943432450      0.339971811      -5.21314156E-04  0.289729089       1.89989805E-07
   2.05427557E-02   8.56847242E-02  0.959311724      0.943503797      0.339776993      -3.56782955E-04  0.289559752      -2.42143869E-08
   2.05292962E-02  0.107116252      0.959342420      0.943545938      0.339667946      -2.27496901E-04  0.289464921      -1.56462193E-07
   2.05158386E-02  0.128547773      0.959357440      0.943566620      0.339621395      -1.29253516E-04  0.289424300      -1.02445483E-07
   2.05023792E-02  0.149979308      0.959361553      0.943572283      0.339617878      -5.80645574E-05  0.289421052      -1.26659870E-07
   2.04889197E-02  0.171410829      0.959358454      0.943568051      0.339641213      -1.00699353E-05  0.289441109      -1.13621354E-07
   2.04754602E-02  0.192842364      0.959351540      0.943558753      0.339678109       1.85462322E-05  0.289472938       9.49949026E-08
   2.04620007E-02  0.214273885      0.959343612      0.943547785      0.339717776       3.15376274E-05  0.289507240       7.82310963E-08
   2.04485413E-02  0.235705420      0.959336340      0.943537772      0.339752376       3.22936103E-05  0.289537132       8.00937414E-08
   2.04350818E-02  0.257136941      0.959331334      0.943530679      0.339776129       2.40938480E-05  0.289557725      -1.35973096E-07
   2.04216223E-02  0.278568476      0.959329188      0.943527818      0.339786172       9.47078752E-06  0.289566398      -2.60770321E-08
   4.11660746E-02   2.12874860E-02  0.959203184      0.943355024      0.340282351      -1.68593775E-03  0.290000290       6.91041350E-07
   4.11391705E-02   4.27269116E-02  0.959307134      0.943497956      0.339907616      -1.22620293E-03  0.289673030       5.01051545E-07
   4.11122665E-02   6.41663373E-02  0.959376276      0.943592846      0.339665115      -8.63738882E-04  0.289461285       1.49011612E-07
   4.10853624E-02   8.56057554E-02  0.959418476      0.943650842      0.339526027      -5.79262211E-04  0.289339721       8.75443220E-08
   4.10584584E-02  0.107045181      0.959440410      0.943680882      0.339464843      -3.59712925E-04  0.289286017      -8.94069672E-08
   4.10315543E-02  0.128484607      0.959447801      0.943691075      0.339459509      -1.95323431E-04  0.289280921      -8.56816769E-08
   4.10046503E-02  0.149924025      0.959445417      0.943687677      0.339491129      -7.78366011E-05  0.289307982      -2.57045031E-07
   4.09777500E-02  0.171363458      0.959436715      0.943675935      0.339543939       1.44051853E-07  0.289353490       5.40167093E-08
   4.09508459E-02  0.192802876      0.959425271      0.943660021      0.339604974       4.53113098E-05  0.289406180      -1.56462193E-07
   4.09239419E-02  0.214242309      0.959413528      0.943643868      0.339663804       6.41237420E-05  0.289457053      -9.68575478E-08
   4.08970378E-02  0.235681728      0.959403455      0.943630040      0.339712799       6.24973545E-05  0.289499402      -8.94069672E-08
   4.08701338E-02  0.257121146      0.959396422      0.943620145      0.339746565       4.62036733E-05  0.289528608      -3.09199095E-07
   4.08432297E-02  0.278560579      0.959392786      0.943615198      0.339762598       2.06923141E-05  0.289542496      -2.45869160E-07
   6.17486648E-02   2.11365297E-02  0.959403694      0.943631470      0.339609057      -2.25602137E-03  0.289417177       1.08592212E-06
   6.17083460E-02   4.25875671E-02  0.959479809      0.943735719      0.339362174      -1.63465459E-03  0.289199263       5.04776835E-07
   6.16680235E-02   6.40386045E-02  0.959526956      0.943800390      0.339223444      -1.13850075E-03  0.289076507       2.44006515E-07
   6.16277009E-02   8.54896381E-02  0.959551096      0.943833470      0.339171141      -7.47724145E-04  0.289029598       5.40167093E-08
   6.15873821E-02  0.106940672      0.959557772      0.943842709      0.339183718      -4.46877239E-04  0.289039433       1.26659870E-07
   6.15470596E-02  0.128391713      0.959552109      0.943835020      0.339241356      -2.23045281E-04  0.289088696       2.44006515E-07
   6.15067370E-02  0.149842754      0.959538698      0.943816245      0.339326411      -6.48748610E-05  0.289161950      -1.11758709E-07
   6.14664182E-02  0.171293780      0.959520817      0.943791628      0.339423954       3.78901241E-05  0.289246172      -1.15483999E-07
   6.14260957E-02  0.192744821      0.959501743      0.943765283      0.339521408       9.48739544E-05  0.289330363      -1.47148967E-07
   6.13857731E-02  0.214195862      0.959483802      0.943740785      0.339609116       1.14979004E-04  0.289406180       5.77419996E-08
   6.13454543E-02  0.235646889      0.959469259      0.943720639      0.339679360       1.06785417E-04  0.289466977      -5.96046448E-08
   6.13051318E-02  0.257097930      0.959459007      0.943706274      0.339727461       7.84266085E-05  0.289508581      -3.35276127E-07
   6.12648092E-02  0.278548956      0.959453583      0.943698943      0.339750379       3.81843565E-05  0.289528400      -1.97440386E-07
   8.23309720E-02   2.09503211E-02  0.959645331      0.943964541      0.338778287      -2.66031991E-03  0.288697124       1.43237412E-06
   8.22772533E-02   4.24156822E-02  0.959687233      0.944021761      0.338679463      -1.91520213E-03  0.288606197       9.36910510E-07
   8.22235346E-02   6.38810396E-02  0.959705830      0.944047034      0.338668555      -1.31113117E-03  0.288593382       5.79282641E-07
   8.21698159E-02   8.53464007E-02  0.959705412      0.944046319      0.338727206      -8.32223101E-04  0.288642108       3.72529030E-07
   8.21161047E-02  0.106811762      0.959691226      0.944026530      0.338835984      -4.63495671E-04  0.288735121       1.89989805E-07
   8.20623860E-02  0.128277123      0.959667504      0.943993866      0.338976681      -1.90868072E-04  0.288856208       1.17346644E-07
   8.20086673E-02  0.149742484      0.959638596      0.943954051      0.339132547      -1.17849947E-06  0.288990706       1.09896064E-07
   8.19549561E-02  0.171207845      0.959607840      0.943911493      0.339289308       1.18225857E-04  0.289126188      -9.68575478E-08
   8.19012374E-02  0.192673206      0.959578097      0.943870664      0.339435250       1.79386159E-04  0.289252371       7.07805157E-08
   8.18475187E-02  0.214138567      0.959551990      0.943834603      0.339560866       1.93719083E-04  0.289361000      -3.72529030E-09
   8.17938000E-02  0.235603914      0.959531009      0.943805516      0.339659303       1.72107102E-04  0.289446175      -2.32830644E-07
   8.17400888E-02  0.257069290      0.959516466      0.943785489      0.339725763       1.25230712E-04  0.289503664      -2.27242708E-07
   8.16863701E-02  0.278534651      0.959508836      0.943775117      0.339757472       6.34399621E-05  0.289531082      -7.45058060E-08
  0.102913015       2.07400341E-02  0.959915638      0.944337308      0.337826550      -2.89901695E-03  0.287871540       1.96322799E-06
  0.102845922       4.22215685E-02  0.959920585      0.944343507      0.337887496      -2.05312297E-03  0.287917972       1.28708780E-06
  0.102778830       6.37031049E-02  0.959906101      0.944322884      0.338021904      -1.36098277E-03  0.288030505       6.10947609E-07
  0.102711737       8.51846412E-02  0.959876478      0.944281876      0.338211238      -8.10545753E-04  0.288192153       4.19095159E-07
  0.102644645      0.106666178      0.959836304      0.944226384      0.338436127      -3.88171378E-04  0.288385540       1.75088644E-07
  0.102577560      0.128147706      0.959789932      0.944162607      0.338678300      -7.95034648E-05  0.288594514       3.07336450E-07
  0.102510467      0.149629250      0.959741592      0.944095850      0.338921219       1.30118278E-04  0.288804471       8.94069672E-08
  0.102443375      0.171110779      0.959694386      0.944030881      0.339151144       2.55409628E-04  0.289003283       1.30385160E-07
  0.102376282      0.192592323      0.959651411      0.943971455      0.339356810       3.10605275E-04  0.289181203      -1.41561031E-07
  0.102309190      0.214073852      0.959614575      0.943920732      0.339529425       3.09450115E-04  0.289330542      -1.08033419E-07
  0.102242097      0.235555395      0.959585667      0.943880856      0.339662343       2.65258655E-04  0.289445490      -1.78813934E-07
  0.102175005      0.257036924      0.959565818      0.943853498      0.339751214       1.90857099E-04  0.289522409      -2.06753612E-07
  0.102107912      0.278518468      0.959555566      0.943839490      0.339793652       9.85127117E-05  0.289559126      -1.22934580E-07
  0.123494908       2.05156635E-02  0.960207522      0.944739759      0.336773038      -2.97443126E-03  0.286956906       2.44006515E-06
  0.123414457       4.20144573E-02  0.960173309      0.944691777      0.337005198      -2.03990750E-03  0.287150979       1.46590173E-06
  0.123333998       6.35132566E-02  0.960122049      0.944620550      0.337301314      -1.27304171E-03  0.287403226       8.40052962E-07
  0.123253539       8.50120485E-02  0.960058689      0.944532931      0.337639898      -6.64849707E-04  0.287694097       4.54485416E-07
  0.123173088      0.106510840      0.959988117      0.944435656      0.337999612      -2.02739931E-04  0.288004309       4.30271029E-07
  0.123092629      0.128009632      0.959915102      0.944334805      0.338360667       1.28321932E-04  0.288316369       1.37835741E-07
  0.123012170      0.149508432      0.959843457      0.944236100      0.338706255       3.44600208E-04  0.288615286       4.84287739E-08
  0.122931719      0.171007231      0.959776640      0.944144011      0.339022636       4.62820899E-04  0.288889050      -4.47034836E-08
  0.122851260      0.192506030      0.959717453      0.944062471      0.339298993       4.99561720E-04  0.289128125      -2.42143869E-08
  0.122770801      0.214004815      0.959667921      0.943994164      0.339527011       4.71019157E-04  0.289325386      -1.76951289E-07
  0.122690350      0.235503614      0.959629476      0.943941236      0.339700490       3.92693124E-04  0.289475471      -1.43423676E-07
  0.122609891      0.257002413      0.959603310      0.943905294      0.339815646       2.79322121E-04  0.289575070      -1.67638063E-08
  0.122529432      0.278501213      0.959589899      0.943886995      0.339870512       1.45492158E-04  0.289622545       1.89989805E-07
  0.144076750       2.02865545E-02  0.960517108      0.945166528      0.335625798      -2.88607320E-03  0.285960287       2.76602805E-06
  0.143982932       4.18029726E-02  0.960440934      0.945060670      0.336043864      -1.86688569E-03  0.286315024       1.77510083E-06
  0.143889114       6.33193925E-02  0.960348904      0.944933355      0.336520135      -1.03342056E-03  0.286723316       1.21816993E-06
  0.143795297       8.48358124E-02  0.960247338      0.944793165      0.337028086      -3.78622499E-04  0.287161052       8.62404704E-07
  0.143701479      0.106352232      0.960142136      0.944647610      0.337541997       1.10050976E-04  0.287605166       2.36555934E-07
  0.143607661      0.127868652      0.960038245      0.944504321      0.338039786       4.49164945E-04  0.288035810       1.86264515E-08
  0.143513858      0.149385065      0.959939539      0.944368422      0.338503718       6.57137483E-04  0.288437307       6.51925802E-08
  0.143420041      0.170901492      0.959849834      0.944244921      0.338919610       7.53334840E-04  0.288797259       1.28522515E-07
  0.143326223      0.192417905      0.959771931      0.944137514      0.339276969       7.57013157E-04  0.289106488      -5.58793545E-09
  0.143232405      0.213934317      0.959707558      0.944048941      0.339568228       6.86845393E-04  0.289358407       2.79396772E-08
  0.143138587      0.235450745      0.959658206      0.943980932      0.339787990       5.60489658E-04  0.289548516      -1.86264515E-09
  0.143044770      0.256967157      0.959624827      0.943935156      0.339933068       3.94926319E-04  0.289673895       2.25380063E-07
  0.142950952      0.278483570      0.959607840      0.943911672      0.340001881       2.06511686E-04  0.289733410       8.19563866E-08