 title = "grid"
                                   variables = "x","y","rho","P","u","v","M","S"
 zone n=         750  e =        1372  et=quadrilateral, f=fepoint
   0.00000000       0.00000000      0.959298611      0.943485796      0.339529604      -5.63760346E-04  0.289349973       5.77419996E-08
   1.00000000       0.00000000      0.948550820      0.939364195      0.292942643       8.19658861E-04  0.248790368       1.13958325E-02
   1.00000000      0.300000012      0.956399262      0.939514279      0.352425545       1.39872682E-05  0.300518572       1.95149332E-05
   0.00000000      0.300000012      0.959656000      0.943977654      0.338193029       4.18267109E-06  0.288189113      -2.21654773E-07
   1.00000000       2.14285720E-02  0.950981677      0.939445317      0.305588603       1.03772723E-03  0.259851933       7.89904594E-03
   1.00000000       4.28571440E-02  0.953505695      0.939487517      0.320533663       1.15644629E-03  0.272915751       4.23308648E-03
   1.00000000       6.42857179E-02  0.954876423      0.939513505      0.330953300       1.14184350E-03  0.281985849       2.24960595E-03
   1.00000000       8.57142881E-02  0.955616891      0.939527750      0.338391572       1.05514308E-03  0.288432866       1.17952004E-03
   1.00000000      0.107142858      0.956009626      0.939533830      0.343619525       9.32911760E-04  0.292947888       6.10783696E-04
   1.00000000      0.128571436      0.956211150      0.939534783      0.347156882       7.97558343E-04  0.295994341       3.16727906E-04
   1.00000000      0.150000006      0.956310570      0.939532697      0.349428535       6.62540609E-04  0.297946751       1.68900937E-04
   1.00000000      0.171428576      0.956358254      0.939529002      0.350815684       5.35403960E-04  0.299137354       9.52184200E-05
   1.00000000      0.192857146      0.956380904      0.939524591      0.351621568       4.19737073E-04  0.299828678       5.73415309E-05
   1.00000000      0.214285716      0.956391335      0.939520478      0.352062464       3.16130783E-04  0.300206840       3.76850367E-05
   1.00000000      0.235714287      0.956395924      0.939517140      0.352285504       2.23203213E-04  0.300398231       2.73864716E-05
   1.00000000      0.257142872      0.956397951      0.939515054      0.352381974       1.38229967E-04  0.300481111       2.22418457E-05
   1.00000000      0.278571427      0.956398904      0.939514101      0.352405667       5.76654347E-05  0.300501585       1.98446214E-05
  0.979591846      0.300000012      0.956399739      0.939514935      0.352381706       3.05884569E-05  0.300481141       1.94907188E-05
  0.959183693      0.300000012      0.956400871      0.939516306      0.352308989       2.75621096E-05  0.300419122       1.92467123E-05
  0.938775539      0.300000012      0.956399441      0.939514458      0.352245808       2.23878978E-05  0.300365299       1.94385648E-05
  0.918367326      0.300000012      0.956394136      0.939507246      0.352198154       1.45386148E-05  0.300324976       1.95354223E-05
  0.897959173      0.300000012      0.956383169      0.939492166      0.352173418       3.47369541E-06  0.300304562       1.95018947E-05
  0.877551019      0.300000012      0.956364632      0.939466596      0.352180213      -1.14648610E-05  0.300311536       1.94311142E-05
  0.857142866      0.300000012      0.956335723      0.939426959      0.352228940      -3.09244497E-05  0.300354868       1.95708126E-05
  0.836734712      0.300000012      0.956293523      0.939368784      0.352331251      -5.54165854E-05  0.300444812       1.93677843E-05
  0.816326559      0.300000012      0.956234932      0.939288080      0.352500379      -8.55862017E-05  0.300592721       1.92429870E-05
  0.795918345      0.300000012      0.956156075      0.939179540      0.352750659      -1.21763951E-04  0.300811172       1.91722065E-05
  0.775510192      0.300000012      0.956053436      0.939038336      0.353097260      -1.64297540E-04  0.301113188       1.90772116E-05
  0.755102038      0.300000012      0.955923080      0.938859046      0.353555411      -2.12951840E-04  0.301512152       1.90790743E-05
  0.734693885      0.300000012      0.955761969      0.938637316      0.354139030      -2.67073512E-04  0.302020103       1.88201666E-05
  0.714285731      0.300000012      0.955567658      0.938369989      0.354859024      -3.24831635E-04  0.302646548       1.86394900E-05
  0.693877578      0.300000012      0.955339730      0.938056588      0.355720520      -3.83260427E-04  0.303395808       1.85817480E-05
  0.673469365      0.300000012      0.955080688      0.937700212      0.356718361      -4.37418785E-04  0.304263473       1.82762742E-05
  0.653061211      0.300000012      0.954797745      0.937310934      0.357832104      -4.79725568E-04  0.305231631       1.78553164E-05
  0.632653058      0.300000012      0.954504490      0.936907411      0.359018564      -4.99607762E-04  0.306262612       1.72741711E-05
  0.612244904      0.300000012      0.954223692      0.936520815      0.360204160      -4.83444048E-04  0.307292163       1.64899975E-05
  0.591836751      0.300000012      0.953987896      0.936196148      0.361277878      -4.15158866E-04  0.308223426       1.57337636E-05
  0.571428597      0.300000012      0.953836977      0.935988367      0.362092733      -2.83288071E-04  0.308928341       1.52327120E-05
  0.551020384      0.300000012      0.953805625      0.935944974      0.362494588      -9.54080897E-05  0.309273213       1.49030238E-05
  0.530612230      0.300000012      0.953906059      0.936083078      0.362379968       1.13361864E-04  0.309168905       1.50687993E-05
  0.510204077      0.300000012      0.954124689      0.936383545      0.361750662       2.95751030E-04  0.308617920       1.51786953E-05
  0.489795923      0.300000012      0.954445362      0.936824143      0.360677749       4.43939323E-04  0.307682037       1.51656568E-05
  0.469387770      0.300000012      0.954855740      0.937387407      0.359231472       5.77559520E-04  0.306422204       1.43777579E-05
  0.448979586      0.300000012      0.955339253      0.938050985      0.357473075       7.03139580E-04  0.304891765       1.33235008E-05
  0.428571433      0.300000012      0.955873489      0.938784242      0.355466545       8.12716375E-04  0.303146929       1.19507313E-05
  0.408163279      0.300000012      0.956422150      0.939536989      0.353318751       8.71052966E-04  0.301281095       1.01868063E-05
  0.387755096      0.300000012      0.956951380      0.940263033      0.351161569       8.69940093E-04  0.299408793       8.15838575E-06
  0.367346942      0.300000012      0.957439184      0.940932035      0.349104553       8.23757262E-04  0.297624856       5.92879951E-06
  0.346938789      0.300000012      0.957873344      0.941528082      0.347218424       7.50095234E-04  0.295990080       4.53181565E-06
  0.326530606      0.300000012      0.958250105      0.942045510      0.345538735       6.64239109E-04  0.294535041       3.35276127E-06
  0.306122452      0.300000012      0.958570898      0.942486107      0.344076395       5.75763697E-04  0.293268979       2.36742198E-06
  0.285714298      0.300000012      0.958838522      0.942853868      0.342827678       4.89669153E-04  0.292188317       1.70432031E-06
  0.265306115      0.300000012      0.959057331      0.943154633      0.341780603       4.09119180E-04  0.291282594       1.16042793E-06
  0.244897962      0.300000012      0.959232628      0.943395734      0.340918034       3.35883844E-04  0.290536821       9.08970833E-07
  0.224489793      0.300000012      0.959369838      0.943584383      0.340220362       2.70919292E-04  0.289933950       5.99771738E-07
  0.204081640      0.300000012      0.959474146      0.943728030      0.339666784       2.14421860E-04  0.289455861       6.25848770E-07
  0.183673471      0.300000012      0.959551036      0.943833590      0.339236796       1.66273079E-04  0.289084822       2.57045031E-07
  0.163265303      0.300000012      0.959605038      0.943908036      0.338910460       1.26069455E-04  0.288803488       3.50177288E-07
  0.142857149      0.300000012      0.959640980      0.943957269      0.338669151       9.32866824E-05  0.288595706       1.02445483E-07
  0.122448981      0.300000012      0.959662616      0.943986952      0.338496000       6.71737580E-05  0.288446873      -5.58793545E-09
  0.102040820      0.300000012      0.959673464      0.944001973      0.338375986       4.68601211E-05  0.288343936       7.82310963E-08
   8.16326514E-02  0.300000012      0.959676683      0.944006503      0.338296115       3.15915895E-05  0.288275629       1.09896064E-07
   6.12244904E-02  0.300000012      0.959674776      0.944003642      0.338245511       2.04188582E-05  0.288232684      -1.19209290E-07
   4.08163257E-02  0.300000012      0.959669352      0.943996251      0.338215351       1.24578191E-05  0.288207322      -4.28408384E-08
   2.04081628E-02  0.300000012      0.959661961      0.943985999      0.338199198       6.74061130E-06  0.288193971      -1.09896064E-07
   0.00000000      0.278571427      0.959656239      0.943978071      0.338189304       1.15486500E-05  0.288185894      -1.43423676E-07
   0.00000000      0.257142872      0.959659278      0.943982422      0.338176489       1.89212660E-05  0.288174778       5.02914190E-08
   0.00000000      0.235714287      0.959664822      0.943989992      0.338152289       2.24697196E-05  0.288153827      -2.04890966E-08
   0.00000000      0.214285716      0.959671915      0.943999708      0.338120252       2.02226656E-05  0.288126141      -6.51925802E-08
   0.00000000      0.192857146      0.959679127      0.944009542      0.338085890       9.96214203E-06  0.288096398      -1.62050128E-07
   0.00000000      0.171428576      0.959684193      0.944016695      0.338058203      -1.05607860E-05  0.288072497       2.98023224E-08
   0.00000000      0.150000006      0.959684551      0.944017231      0.338047802      -4.36372393E-05  0.288063586       5.96046448E-08
   0.00000000      0.128571436      0.959676981      0.944006681      0.338068545      -9.14119300E-05  0.288081735      -1.35973096E-07
   0.00000000      0.107142858      0.959657431      0.943979859      0.338136882      -1.55545640E-04  0.288141161       2.98023224E-08
   0.00000000       8.57142881E-02  0.959621429      0.943930089      0.338272452      -2.37385466E-04  0.288258940      -1.71363354E-07
   0.00000000       6.42857179E-02  0.959563494      0.943850577      0.338498086      -3.36005731E-04  0.288454711       9.68575478E-08
   0.00000000       4.28571440E-02  0.959478438      0.943733335      0.338840574      -4.45131242E-04  0.288751841      -1.11758709E-08
   0.00000000       2.14285720E-02  0.959360600      0.943571031      0.339331448      -5.46346942E-04  0.289177388      -1.04308128E-07
   2.05965936E-02  -4.13848684E-05  0.959320724      0.943516314      0.339461893      -9.20672843E-04  0.289291590       1.00582838E-07
   4.11929786E-02  -1.51938104E-04  0.959385812      0.943606317      0.339105397      -1.82781182E-03  0.288986951       5.51342964E-07
   6.17889874E-02  -3.14505887E-04  0.959537029      0.943814993      0.338462472      -2.54836236E-03  0.288433850       1.01141632E-06
   8.23846832E-02  -5.15037973E-04  0.959737778      0.944091916      0.337634772      -3.07004200E-03  0.287720144       1.49756670E-06
  0.102980107      -7.41501746E-04  0.959972858      0.944416344      0.336671799      -3.40791792E-03  0.286888212       2.24635005E-06
  0.123575367      -9.83132166E-04  0.960235059      0.944778204      0.335597128      -3.57458973E-03  0.285958320       2.95601785E-06
  0.144170567      -1.22986489E-03  0.960521281      0.945173323      0.334419429      -3.57677275E-03  0.284937799       3.87616456E-06
  0.164765805      -1.47186557E-03  0.960831225      0.945600748      0.333136350      -3.41515988E-03  0.283824891       4.23938036E-06
  0.185361236      -1.69908674E-03  0.961165965      0.946062386      0.331737489      -3.08364839E-03  0.282610714       4.69200313E-06
  0.205956906      -1.90079887E-03  0.961528838      0.946563184      0.330203831      -2.56854226E-03  0.281279176       5.44451177E-06
  0.226552933      -2.06502923E-03  0.961924851      0.947109997      0.328507274      -1.84687716E-03  0.279806763       6.50994480E-06
  0.247149289      -2.17781961E-03  0.962361813      0.947713614      0.326608121      -8.82822496E-04  0.278160334       7.75791705E-06
  0.267745912      -2.22215871E-03  0.962849915      0.948388219      0.324451566       3.77844524E-04  0.276294559       9.50694084E-06
  0.288342476      -2.17632344E-03  0.963403404      0.949154019      0.321962684       2.01816182E-03  0.274148464       1.21016055E-05
  0.308938444      -2.01110821E-03  0.964041054      0.950037241      0.319039673       4.16963780E-03  0.271640927       1.58194453E-05
  0.329532504      -1.68479502E-03  0.964788735      0.951073885      0.315544903       7.05265533E-03  0.268667161       2.10274011E-05
  0.350121617      -1.13302853E-03  0.965678751      0.952309847      0.311303109       1.10730110E-02  0.265107036       2.88169831E-05
  0.370698810      -2.45296280E-04  0.966766298      0.953826249      0.306157619       1.75987054E-02  0.260929674       4.41316515E-05
  0.391233593       1.31973682E-03  0.967925847      0.955466211      0.300900787       2.96257883E-02  0.257197946       8.38302076E-05
  0.411623418       4.19568829E-03  0.968382061      0.956196368      0.298471868       4.94534262E-02  0.257317990       1.88035890E-04
  0.431661844       8.91561527E-03  0.966722250      0.954194009      0.303532571       7.84279034E-02  0.266690552       4.93444502E-04
  0.451005518       1.59534402E-02  0.960075915      0.945669711      0.326588273      0.113284342      0.294368088       1.17815286E-03
  0.469851911       2.42583062E-02  0.944391429      0.925154448      0.379038990      0.122942112      0.340259373       2.30578519E-03
  0.489723206       2.94313785E-02  0.927684844      0.903329670      0.426516503       7.14030191E-02  0.370382965       3.42081115E-03
  0.510276794       2.94313785E-02  0.919644415      0.894363523      0.428517520      -1.61882695E-02  0.367508352       5.63252345E-03
  0.530148089       2.42583044E-02  0.920698225      0.898462236      0.388426661      -9.20722038E-02  0.341526359       8.60155746E-03
  0.548994482       1.59534402E-02  0.930342972      0.913668215      0.334275573     -0.114646614      0.301381558       1.07949842E-02
  0.568338156       8.91561527E-03  0.943490744      0.932494938      0.293453485      -8.64324793E-02  0.260067403       1.15446709E-02
  0.588376582       4.19568783E-03  0.950402260      0.942307711      0.273188651      -5.46838604E-02  0.236475825       1.17945392E-02
  0.608766437       1.31973659E-03  0.952689469      0.945549548      0.266875565      -3.31143178E-02  0.228137210       1.18637662E-02
  0.629301190      -2.45296367E-04  0.953029454      0.945997000      0.267467767      -1.95672978E-02  0.227496535       1.18373707E-02
  0.649878383      -1.13302865E-03  0.952609539      0.945350885      0.270438790      -1.20884543E-02  0.229667410       1.17711602E-02
  0.670467496      -1.68479513E-03  0.952084363      0.944561243      0.273441881      -7.76688382E-03  0.232112661       1.17075434E-02
  0.691061556      -2.01110821E-03  0.951633513      0.943884790      0.276012510      -4.81194817E-03  0.234264329       1.16542568E-02
  0.711657524      -2.17632344E-03  0.951240718      0.943296552      0.278239667      -2.66105891E-03  0.236154363       1.16087906E-02
  0.732254088      -2.22215871E-03  0.950892985      0.942777216      0.280203313      -1.04246032E-03  0.237833783       1.15699545E-02
  0.752850711      -2.17781961E-03  0.950580776      0.942311704      0.281962544       1.96526511E-04  0.239345193       1.15358680E-02
  0.773447096      -2.06502923E-03  0.950296402      0.941889584      0.283559620       1.14848244E-03  0.240720719       1.15066515E-02
  0.794043124      -1.90079887E-03  0.950034142      0.941502988      0.285024166       1.87249458E-03  0.241983548       1.14825154E-02
  0.814638793      -1.69908674E-03  0.949790657      0.941146910      0.286376357       2.40708422E-03  0.243149698       1.14631336E-02
  0.835234165      -1.47186557E-03  0.949563742      0.940817595      0.287629008       2.77717458E-03  0.244229600       1.14476578E-02
  0.855829418      -1.22986489E-03  0.949352682      0.940513372      0.288788259       2.99851270E-03  0.245228082       1.14354370E-02
  0.876424611      -9.83132166E-04  0.949157953      0.940233946      0.289853692       3.07972939E-03  0.246144786       1.14255017E-02
  0.897019863      -7.41501746E-04  0.948980868      0.939980626      0.290817708       3.02335853E-03  0.246973053       1.14172827E-02
  0.917615294      -5.15037973E-04  0.948824584      0.939757407      0.291662604       2.82689021E-03  0.247697860       1.14103416E-02
  0.938211024      -3.14505887E-04  0.948694229      0.939570844      0.292357415       2.48236349E-03  0.248292789       1.14041558E-02
  0.958807051      -1.51938104E-04  0.948596895      0.939431608      0.292851388       1.97598711E-03  0.248714671       1.13996547E-02
  0.979403377      -4.13848684E-05  0.948545158      0.939357400      0.293061465       1.28787290E-03  0.248892874       1.13969576E-02
   2.05831341E-02   2.13901419E-02  0.959406316      0.943634093      0.339109421      -9.60969308E-04  0.288986176       5.96046448E-08
   2.05696747E-02   4.28216718E-02  0.959521055      0.943792284      0.338656366      -7.15820992E-04  0.288592666       2.84984708E-07
   2.05562152E-02   6.42531961E-02  0.959599555      0.943900406      0.338351905      -5.13694074E-04  0.288328141       2.73808837E-07
   2.05427557E-02   8.56847242E-02  0.959650338      0.943970025      0.338160753      -3.50354821E-04  0.288162082      -4.28408384E-08
   2.05292962E-02  0.107116252      0.959679842      0.944010794      0.338054925      -2.21950351E-04  0.288070023       7.26431608E-08
   2.05158386E-02  0.128547773      0.959693968      0.944030046      0.338011265      -1.24377912E-04  0.288031965      -1.11758709E-07
   2.05023792E-02  0.149979308      0.959697187      0.944034636      0.338010460      -5.36524167E-05  0.288031012       6.51925802E-08
   2.04889197E-02  0.171410829      0.959693611      0.944029570      0.338036239      -5.95136498E-06  0.288053244      -8.00937414E-08
   2.04754602E-02  0.192842364      0.959686041      0.944019139      0.338075429       2.25126169E-05  0.288087070      -1.54599547E-07
   2.04620007E-02  0.214273885      0.959677398      0.944007337      0.338117450       3.53959440E-05  0.288123399       9.31322575E-09
   2.04485413E-02  0.235705420      0.959669411      0.943996370      0.338154405       3.63672007E-05  0.288155347      -1.11758709E-08
   2.04350818E-02  0.257136941      0.959663570      0.943988383      0.338180751       2.87996227E-05  0.288178146       6.70552254E-08
   2.04216223E-02  0.278568476      0.959660769      0.943984330      0.338193595       1.59399951E-05  0.288189292      -8.00937414E-08
   4.11660746E-02   2.12874860E-02  0.959489822      0.943749547      0.338694006      -1.66974752E-03  0.288629413       4.97326255E-07
   4.11391705E-02   4.27269116E-02  0.959592521      0.943890691      0.338323444      -1.21279561E-03  0.288305849       2.36555934E-07
   4.11122665E-02   6.41663373E-02  0.959660292      0.943983972      0.338084757      -8.52427678E-04  0.288097441       1.52736902E-07
   4.10853624E-02   8.56057554E-02  0.959701240      0.944040418      0.337948918      -5.69544500E-04  0.287978709       2.44006515E-07
   4.10584584E-02  0.107045181      0.959722281      0.944069147      0.337890625      -3.51240771E-04  0.287927568       3.16649675E-08
   4.10315543E-02  0.128484607      0.959728718      0.944077909      0.337887973      -1.87789628E-04  0.287924856      -1.17346644E-07
   4.10046503E-02  0.149924025      0.959725142      0.944073141      0.337922126      -7.09620872E-05  0.287954092       3.72529030E-08
   4.09777500E-02  0.171363458      0.959715843      0.944060087      0.337977260       6.51799064E-06  0.288001657      -2.01165676E-07
   4.09508459E-02  0.192802876      0.959703505      0.944043219      0.338040501       5.13616469E-05  0.288056254      -9.31322575E-08
   4.09239419E-02  0.214242309      0.959691048      0.944026053      0.338101566       7.00823512E-05  0.288109064      -1.17346644E-07
   4.08970378E-02  0.235681728      0.959680259      0.944011331      0.338152379       6.87291467E-05  0.288152963       1.30385160E-08
   4.08701338E-02  0.257121146      0.959672511      0.944000781      0.338188082       5.31606820E-05  0.288183838       1.58324838E-07
   4.08432297E-02  0.278560579      0.959668696      0.943995297      0.338205606       2.90321859E-05  0.288199037      -6.33299351E-08
   6.17486648E-02   2.11365297E-02  0.959634304      0.943948865      0.338062644      -2.23668222E-03  0.288085431       9.48086381E-07
   6.17083460E-02   4.25875671E-02  0.959709406      0.944051981      0.337819099      -1.61820266E-03  0.287870437       6.05359674E-07
   6.16680235E-02   6.40386045E-02  0.959755659      0.944115400      0.337683290      -1.12432765E-03  0.287750274       2.86847353E-07
   6.16277009E-02   8.54896381E-02  0.959778845      0.944147170      0.337633699      -7.35371374E-04  0.287705749       1.45286322E-07
   6.15873821E-02  0.106940672      0.959784806      0.944155157      0.337648809      -4.35896363E-04  0.287717879      -1.00582838E-07
   6.15470596E-02  0.128391713      0.959778070      0.944146097      0.337708861      -2.13113686E-04  0.287769198       9.12696123E-08
   6.15067370E-02  0.149842754      0.959763467      0.944125950      0.337796152      -5.57207495E-05  0.287844419       5.58793545E-08
   6.14664182E-02  0.171293780      0.959744692      0.944100142      0.337895811       4.63651195E-05  0.287930489       1.34110451E-07
   6.14260957E-02  0.192744821      0.959724724      0.944072664      0.337995380       1.02901511E-04  0.288016498       1.54599547E-07
   6.13857731E-02  0.214195862      0.959706247      0.944047093      0.338084728       1.22816215E-04  0.288093805       4.47034836E-08
   6.13454543E-02  0.235646889      0.959691048      0.944025934      0.338156492       1.14712864E-04  0.288155884      -2.34693289E-07
   6.13051318E-02  0.257097930      0.959680319      0.944011331      0.338205814       8.67767449E-05  0.288198531      -7.07805157E-08
   6.12648092E-02  0.278548956      0.959675014      0.944004118      0.338229835       4.70862797E-05  0.288219303       1.00582838E-07
   8.23309720E-02   2.09503211E-02  0.959821701      0.944207311      0.337273002      -2.63905106E-03  0.287403762       1.30198896E-06
   8.22772533E-02   4.24156822E-02  0.959863186      0.944263995      0.337176383      -1.89673947E-03  0.287314773       8.69855285E-07
   8.22235346E-02   6.38810396E-02  0.959881127      0.944288492      0.337167650      -1.29499391E-03  0.287303835       5.86733222E-07
   8.21698159E-02   8.53464007E-02  0.959880173      0.944287062      0.337228447      -8.17831140E-04  0.287354469       5.15952706E-07
   8.21161047E-02  0.106811762      0.959865332      0.944266081      0.337339371      -4.50454070E-04  0.287449360      -9.68575478E-08
   8.20623860E-02  0.128277123      0.959840715      0.944232106      0.337481976      -1.78914561E-04  0.287572145      -1.24797225E-07
   8.20086673E-02  0.149742484      0.959810674      0.944191039      0.337639809       9.86802388E-06  0.287708372       1.35973096E-07
   8.19549561E-02  0.171207845      0.959779024      0.944147408      0.337798506       1.28516796E-04  0.287845522       1.26659870E-07
   8.19012374E-02  0.192673206      0.959748685      0.944105446      0.337945938       1.89096885E-04  0.287973017      -7.82310963E-08
   8.18475187E-02  0.214138567      0.959721804      0.944068551      0.338072985       2.03012678E-04  0.288082898       3.16649675E-08
   8.17938000E-02  0.235603914      0.959700406      0.944038928      0.338172436       1.81170937E-04  0.288168937      -1.41561031E-07
   8.17400888E-02  0.257069290      0.959685743      0.944018602      0.338239700       1.34159869E-04  0.288227111      -2.66358256E-07
   8.16863701E-02  0.278534651      0.959678233      0.944008470      0.338272244       7.23584235E-05  0.288255244      -4.65661287E-08
  0.102913015       2.07400341E-02  0.960040987      0.944510043      0.336359829      -2.87690246E-03  0.286614120       2.08988786E-06
  0.102845922       4.22215685E-02  0.960046053      0.944516301      0.336422116      -2.03365553E-03  0.286661744       1.30385160E-06
  0.102778830       6.37031049E-02  0.960031331      0.944495499      0.336558074      -1.34363212E-03  0.286775619       7.82310963E-07
  0.102711737       8.51846412E-02  0.960001409      0.944453835      0.336748868      -7.94787251E-04  0.286938578       2.79396772E-07
  0.102644645      0.106666178      0.959960759      0.944397569      0.336975247      -3.73716786E-04  0.287133306      -6.51925802E-08
  0.102577560      0.128147706      0.959913731      0.944332838      0.337218881      -6.61825470E-05  0.287343532       4.09781933E-08
  0.102510467      0.149629250      0.959864616      0.944265306      0.337463289       1.42524150E-04  0.287554741       1.43423676E-07
  0.102443375      0.171110779      0.959816873      0.944199383      0.337694585       2.66990508E-04  0.287754804      -3.72529030E-09
  0.102376282      0.192592323      0.959773064      0.944139242      0.337901503       3.21460102E-04  0.287933737       1.93715096E-07
  0.102309190      0.214073852      0.959735811      0.944087625      0.338075012       3.19652172E-04  0.288083881      -1.62050128E-07
  0.102242097      0.235555395      0.959706604      0.944047570      0.338208646       2.74809427E-04  0.288199455       1.11758709E-08
  0.102175005      0.257036924      0.959686756      0.944020331      0.338297933       1.99866845E-04  0.288276643       1.02445483E-07
  0.102107912      0.278518468      0.959676743      0.944006562      0.338340849       1.07094587E-04  0.288313806       1.67638063E-07
  0.123494908       2.05156635E-02  0.960286319      0.944848359      0.335341424      -2.95246439E-03  0.285732299       2.51457095E-06
  0.123414457       4.20144573E-02  0.960252702      0.944801152      0.335574001      -2.02031597E-03  0.285926729       1.54972076E-06
  0.123333998       6.35132566E-02  0.960201561      0.944730222      0.335870862      -1.25530385E-03  0.286179572       1.04866922E-06
  0.123253539       8.50120485E-02  0.960138321      0.944642603      0.336210132      -6.48530084E-04  0.286471039       4.91738319E-07
  0.123173088      0.106510840      0.960067570      0.944544911      0.336570650      -1.87586731E-04  0.286782026       2.16066837E-07
  0.123092629      0.128009632      0.959994137      0.944443762      0.336932629       1.42445002E-04  0.287094802       2.17929482E-07
  0.123012170      0.149508432      0.959922135      0.944344461      0.337279171       3.57824320E-04  0.287394553       3.53902578E-08
  0.122931719      0.171007231      0.959855080      0.944251955      0.337596416       4.75201959E-04  0.287669033      -1.35973096E-07
  0.122851260      0.192506030      0.959795296      0.944169760      0.337873489       5.11097023E-04  0.287908763       7.45058060E-08
  0.122770801      0.214004815      0.959745586      0.944101155      0.338101923       4.81630472E-04  0.288106382      -1.26659870E-07
  0.122690350      0.235503614      0.959707081      0.944048345      0.338275731       4.02377336E-04  0.288256675       1.09896064E-07
  0.122609891      0.257002413      0.959681094      0.944012702      0.338391095       2.88126379E-04  0.288356423       2.79396772E-07
  0.122529432      0.278501213      0.959668338      0.943995059      0.338446021       1.53451314E-04  0.288403928       2.06753612E-07
  0.144076750       2.02865545E-02  0.960554600      0.945218503      0.334224761      -2.86507397E-03  0.284764260       3.07150185E-06
  0.143982932       4.18029726E-02  0.960479498      0.945113957      0.334642351      -1.84796378E-03  0.285118520       1.94832683E-06
  0.143889114       6.33193925E-02  0.960388362      0.944987535      0.335118413      -1.01604755E-03  0.285526663       1.01327896E-06
  0.143795297       8.48358124E-02  0.960287273      0.944847882      0.335626125      -3.62468738E-04  0.285964191       5.94183803E-07
  0.143701479      0.106352232      0.960182011      0.944702864      0.336140156       1.25257749E-04  0.286408275       5.90458512E-07
  0.143607661      0.127868652      0.960078180      0.944559634      0.336638153       4.63478063E-04  0.286839098       3.40864062E-07
  0.143513858      0.149385065      0.959979773      0.944423914      0.337102264       6.70622569E-04  0.287240744       1.41561031E-07
  0.143420041      0.170901492      0.959890187      0.944300473      0.337518364       7.65973818E-04  0.287600845       9.12696123E-08
  0.143326223      0.192417905      0.959812164      0.944193125      0.337875932       7.68666680E-04  0.287910223       1.86264515E-07
  0.143232405      0.213934317      0.959747851      0.944104731      0.338167191       6.97429525E-04  0.288162112       3.96743417E-07
  0.143138587      0.235450745      0.959698856      0.944037199      0.338386863       5.69917902E-04  0.288352013       3.35276127E-07
  0.143044770      0.256967157      0.959666014      0.943991959      0.338531733       4.03118756E-04  0.288477272       3.33413482E-07
  0.142950952      0.278483570      0.959649861      0.943969548      0.338600278       2.13542007E-04  0.288536519       1.60187483E-07