 title = "grid"
                                   variables = "x","y","rho","P","u","v","M","S"
 zone n=         750  e =        1372  et=quadrilateral, f=fepoint
   0.00000000       0.00000000      0.959407687      0.943636000      0.339046776      -5.59729058E-04  0.288931906       9.68575478E-08
   1.00000000       0.00000000      0.948593974      0.939376950      0.292457134       8.19494599E-04  0.248382002       1.13457432E-02
   1.00000000      0.300000012      0.956405759      0.939523160      0.351788223       1.63282039E-05  0.299974680       1.93864107E-05
   0.00000000      0.300000012      0.959757984      0.944118440      0.337731212       6.21390154E-06  0.287789404       1.00582838E-07
   1.00000000       2.14285720E-02  0.951013803      0.939456761      0.305062413       1.03576062E-03  0.259407312       7.86393136E-03
   1.00000000       4.28571440E-02  0.953527033      0.939498842      0.319961935       1.15316850E-03  0.272430390       4.21378203E-03
   1.00000000       6.42857179E-02  0.954891443      0.939524710      0.330353230       1.13815989E-03  0.281475127       2.23948993E-03
   1.00000000       8.57142881E-02  0.955628633      0.939538896      0.337773651       1.05169893E-03  0.287906229       1.17418170E-03
   1.00000000      0.107142858      0.956019700      0.939545095      0.342990816       9.29932750E-04  0.292411655       6.08025119E-04
   1.00000000      0.128571436      0.956219971      0.939545929      0.346522421       7.95073807E-04  0.295452982       3.15634534E-04
   1.00000000      0.150000006      0.956318915      0.939543784      0.348791271       6.60601363E-04  0.297402918       1.68511644E-04
   1.00000000      0.171428576      0.956366479      0.939539969      0.350177437       5.33990911E-04  0.298592716       9.47937369E-05
   1.00000000      0.192857146      0.956388474      0.939535439      0.350982875       4.18886339E-04  0.299283534       5.78220934E-05
   1.00000000      0.214285716      0.956398785      0.939531446      0.351423919       3.15869576E-04  0.299661756       3.84543091E-05
   1.00000000      0.235714287      0.956403494      0.939528108      0.351647168       2.23552139E-04  0.299853325       2.79825181E-05
   1.00000000      0.257142872      0.956405580      0.939525902      0.351743788       1.39184151E-04  0.299936384       2.26348639E-05
   1.00000000      0.278571427      0.956406593      0.939525068      0.351767957       5.94046360E-05  0.299957246       2.01892108E-05
  0.979591846      0.300000012      0.956412017      0.939532042      0.351743013       3.26449735E-05  0.299935699       1.96825713E-05
  0.959183693      0.300000012      0.956426442      0.939551950      0.351667315       2.95363079E-05  0.299870282       1.97868794E-05
  0.938775539      0.300000012      0.956437647      0.939567506      0.351602167       2.42285569E-05  0.299813956       1.99601054E-05
  0.918367326      0.300000012      0.956443965      0.939576387      0.351553887       1.61861662E-05  0.299772382       2.01705843E-05
  0.897959173      0.300000012      0.956443310      0.939575613      0.351530105       4.81288771E-06  0.299752116       2.02450901E-05
  0.877551019      0.300000012      0.956433356      0.939562142      0.351539701      -1.03974926E-05  0.299760878       2.05412507E-05
  0.857142866      0.300000012      0.956411600      0.939532042      0.351593107      -3.01513901E-05  0.299807817       2.03624368E-05
  0.836734712      0.300000012      0.956374824      0.939481199      0.351702005      -5.49309989E-05  0.299903005       2.00085342E-05
  0.816326559      0.300000012      0.956319392      0.939404786      0.351879656      -8.54340979E-05  0.300058007       1.98408961E-05
  0.795918345      0.300000012      0.956241608      0.939297795      0.352140456      -1.21953686E-04  0.300285310       1.98651105E-05
  0.775510192      0.300000012      0.956137955      0.939155042      0.352499664      -1.64849233E-04  0.300598234       1.95801258E-05
  0.755102038      0.300000012      0.956004620      0.938971162      0.352972180      -2.13764841E-04  0.301009655       1.90623105E-05
  0.734693885      0.300000012      0.955838203      0.938741922      0.353572100      -2.68133037E-04  0.301531881       1.86003745E-05
  0.714285731      0.300000012      0.955636263      0.938464224      0.354310185      -3.26176494E-04  0.302174091       1.85817480E-05
  0.693877578      0.300000012      0.955398560      0.938137174      0.355191529      -3.84943822E-04  0.302940935       1.82986259E-05
  0.673469365      0.300000012      0.955128014      0.937764585      0.356210887      -4.39385185E-04  0.303827703       1.75051391E-05
  0.653061211      0.300000012      0.954831600      0.937356532      0.357347518      -4.82068106E-04  0.304816276       1.68401748E-05
  0.632653058      0.300000012      0.954522848      0.936931908      0.358558327      -5.02359995E-04  0.305868953       1.65086240E-05
  0.612244904      0.300000012      0.954225123      0.936521947      0.359769374      -4.86566598E-04  0.306921273       1.55791640E-05
  0.591836751      0.300000012      0.953971207      0.936172605      0.360869437      -4.18623007E-04  0.307876140       1.50818378E-05
  0.571428597      0.300000012      0.953801394      0.935939133      0.361711204      -2.87049072E-04  0.308605194       1.49291009E-05
  0.551020384      0.300000012      0.953750789      0.935869455      0.362140119      -9.93253270E-05  0.308974355       1.46906823E-05
  0.530612230      0.300000012      0.953831911      0.935981095      0.362052083       1.09418041E-04  0.308893979       1.49421394E-05
  0.510204077      0.300000012      0.954032004      0.936256170      0.361448020       2.91861827E-04  0.308365732       1.50930136E-05
  0.489795923      0.300000012      0.954335213      0.936672151      0.360398710       4.40172036E-04  0.307451189       1.44336373E-05
  0.469387770      0.300000012      0.954729259      0.937212884      0.358973920       5.73937199E-04  0.306210726       1.36271119E-05
  0.448979586      0.300000012      0.955198228      0.937856495      0.357234508       6.99655444E-04  0.304697394       1.26399100E-05
  0.428571433      0.300000012      0.955720365      0.938573122      0.355243951       8.09427234E-04  0.302966893       1.13379210E-05
  0.408163279      0.300000012      0.956259489      0.939312875      0.353108823       8.68118193E-04  0.301112413       9.70438123E-06
  0.387755096      0.300000012      0.956782162      0.940029919      0.350960433       8.67501600E-04  0.299247950       7.80262053E-06
  0.367346942      0.300000012      0.957266390      0.940694392      0.348908275       8.21865804E-04  0.297468215       6.00516796E-06
  0.346938789      0.300000012      0.957700253      0.941289842      0.347023129       7.48800579E-04  0.295834303       4.47407365E-06
  0.326530606      0.300000012      0.958080113      0.941811383      0.345340550       6.63535320E-04  0.294376582       3.20747495E-06
  0.306122452      0.300000012      0.958406925      0.942260087      0.343871683       5.75648795E-04  0.293104559       1.97067857E-06
  0.285714298      0.300000012      0.958683670      0.942640066      0.342613101       4.90184233E-04  0.292014956       1.01886690E-06
  0.265306115      0.300000012      0.958914101      0.942956865      0.341553122       4.10140929E-04  0.291097552       5.27128577E-07
  0.244897962      0.300000012      0.959103286      0.943217218      0.340675116       3.37416801E-04  0.290337682       4.13507223E-07
  0.224489793      0.300000012      0.959256411      0.943428159      0.339959800       2.72868259E-04  0.289718807       5.68106771E-07
  0.204081640      0.300000012      0.959378541      0.943596423      0.339386761       2.16767352E-04  0.289222986       6.72414899E-07
  0.183673471      0.300000012      0.959474802      0.943728745      0.338936031       1.68937608E-04  0.288833141       4.07919288E-07
  0.163265303      0.300000012      0.959549367      0.943831205      0.338588357       1.28973785E-04  0.288532376       1.63912773E-07
  0.142857149      0.300000012      0.959606349      0.943909705      0.338325471       9.64290593E-05  0.288304895       2.38418579E-07
  0.122448981      0.300000012      0.959649742      0.943969190      0.338131011       7.03589685E-05  0.288136631      -1.15483999E-07
  0.102040820      0.300000012      0.959682226      0.944014132      0.337990463       5.01137365E-05  0.288014859       1.86264515E-07
   8.16326514E-02  0.300000012      0.959706783      0.944047868      0.337890983       3.48332469E-05  0.287928611       5.58793545E-08
   6.12244904E-02  0.300000012      0.959725559      0.944073737      0.337822258       2.35605166E-05  0.287868947       3.91155481E-08
   4.08163257E-02  0.300000012      0.959740102      0.944093645      0.337775826       1.54394493E-05  0.287828535      -8.19563866E-08
   2.04081628E-02  0.300000012      0.959751308      0.944109201      0.337745816       9.44441399E-06  0.287802249       1.13621354E-07
   0.00000000      0.278571427      0.959759414      0.944120467      0.337725997       1.31068573E-05  0.287784874       1.75088644E-07
   0.00000000      0.257142872      0.959762752      0.944124997      0.337712109       2.03518794E-05  0.287772834       1.22934580E-07
   0.00000000      0.235714287      0.959768474      0.944132864      0.337686896       2.39699893E-05  0.287751019       9.87201929E-08
   0.00000000      0.214285716      0.959775686      0.944142878      0.337653726       2.17313736E-05  0.287722319       1.82539225E-07
   0.00000000      0.192857146      0.959783018      0.944152772      0.337618530       1.14759305E-05  0.287691921      -2.23517418E-08
   0.00000000      0.171428576      0.959788322      0.944160104      0.337589711      -8.96613437E-06  0.287667036       7.45058060E-09
   0.00000000      0.150000006      0.959788859      0.944160879      0.337578267      -4.19238786E-05  0.287657231       1.86264515E-08
   0.00000000      0.128571436      0.959781468      0.944150686      0.337597787      -8.95205449E-05  0.287674367       1.30385160E-08
   0.00000000      0.107142858      0.959762096      0.944123983      0.337664664      -1.53638466E-04  0.287732512      -4.28408384E-08
   0.00000000       8.57142881E-02  0.959726334      0.944074869      0.337798744      -2.35384039E-04  0.287848890       1.52736902E-07
   0.00000000       6.42857179E-02  0.959668934      0.943995774      0.338022709      -3.33708507E-04  0.288043290       7.26431608E-08
   0.00000000       4.28571440E-02  0.959584415      0.943879366      0.338363260      -4.42523218E-04  0.288338691       1.15483999E-07
   0.00000000       2.14285720E-02  0.959467173      0.943717897      0.338851839      -5.42994298E-04  0.288762212       8.56816769E-08
   2.05965936E-02  -4.13848684E-05  0.959420502      0.943653882      0.338986605      -9.16237419E-04  0.288880527       3.24100256E-07
   4.11929786E-02  -1.51938104E-04  0.959463298      0.943713009      0.338647187      -1.82156777E-03  0.288591772       5.45755029E-07
   6.17889874E-02  -3.14505887E-04  0.959590673      0.943888903      0.338023990      -2.54091132E-03  0.288056970       1.08033419E-06
   8.23846832E-02  -5.15037973E-04  0.959766626      0.944131672      0.337218136      -3.06183589E-03  0.287363291       1.53481960E-06
  0.102980107      -7.41501746E-04  0.959976494      0.944421113      0.336278737      -3.39936186E-03  0.286553055       1.92224979E-06
  0.123575367      -9.83132166E-04  0.960213184      0.944747567      0.335228831      -3.56597966E-03  0.285645783       2.44006515E-06
  0.144170567      -1.22986489E-03  0.960473776      0.945107281      0.334076285      -3.56848445E-03  0.284648299       3.24845314E-06
  0.164765805      -1.47186557E-03  0.960758686      0.945500135      0.332818687      -3.40738241E-03  0.283558577       3.55765224E-06
  0.185361236      -1.69908674E-03  0.961069405      0.945928812      0.331444770      -3.07664368E-03  0.282367051       4.11458313E-06
  0.205956906      -1.90079887E-03  0.961409748      0.946398675      0.329935074      -2.56257993E-03  0.281057239       5.03659248E-06
  0.226552933      -2.06502923E-03  0.961785257      0.946917117      0.328260869      -1.84209051E-03  0.279605031       6.02006912E-06
  0.247149289      -2.17781961E-03  0.962203681      0.947495103      0.326382190      -8.79385741E-04  0.277977109       7.28853047E-06
  0.267745912      -2.22215871E-03  0.962675810      0.948147893      0.324243814       3.79844569E-04  0.276127696       9.21823084E-06
  0.288342476      -2.17632344E-03  0.963216126      0.948895395      0.321770668       2.01855577E-03  0.273995638       1.17551535E-05
  0.308938444      -2.01110821E-03  0.963843882      0.949764371      0.318860412       4.16815747E-03  0.271499515       1.49663538E-05
  0.329532504      -1.68479502E-03  0.964584529      0.950790942      0.315375388       7.04906415E-03  0.268534362       1.98353082E-05
  0.350121617      -1.13302853E-03  0.965470016      0.952020586      0.311140478       1.10667944E-02  0.264980108       2.77161598E-05
  0.370698810      -2.45296280E-04  0.966555774      0.953534842      0.305999041       1.75885558E-02  0.260805935       4.34573740E-05
  0.391233593       1.31973682E-03  0.967716277      0.955176413      0.300743133       2.96089593E-02  0.257074237       8.36048275E-05
  0.411623418       4.19568829E-03  0.968177617      0.955912888      0.298310935       4.94252443E-02  0.257190019       1.87138095E-04
  0.431661844       8.91561527E-03  0.966527998      0.953924239      0.303361148       7.83822387E-02  0.266550541       4.91987914E-04
  0.451005518       1.59534402E-02  0.959901869      0.945427537      0.326391131      0.113214679      0.294201016       1.17588416E-03
  0.469851911       2.42583062E-02  0.944256544      0.924966156      0.378785968      0.122857057      0.340041757       2.30219029E-03
  0.489723206       2.94313785E-02  0.927600324      0.903209746      0.426193357       7.13411719E-02  0.370108932       3.41555849E-03
  0.510276794       2.94313785E-02  0.919601262      0.894297659      0.428154349      -1.61895659E-02  0.367202252       5.62456623E-03
  0.530148089       2.42583044E-02  0.920679510      0.898426473      0.388068318      -9.20070708E-02  0.341218531       8.59020278E-03
  0.548994482       1.59534402E-02  0.930330575      0.913638890      0.333945334     -0.114548534      0.301090837       1.07815675E-02
  0.568338156       8.91561527E-03  0.943475425      0.932460070      0.293146491      -8.63498971E-02  0.259799957       1.15299933E-02
  0.588376582       4.19568783E-03  0.950393438      0.942278326      0.272888511      -5.46302572E-02  0.236219689       1.17763747E-02
  0.608766437       1.31973659E-03  0.952696323      0.945536375      0.266567737      -3.30828354E-02  0.227877170       1.18398266E-02
  0.629301190      -2.45296367E-04  0.953055680      0.946005106      0.267143279      -1.95498299E-02  0.227223083       1.18073775E-02
  0.649878383      -1.13302865E-03  0.952655852      0.945381105      0.270093530      -1.20788217E-02  0.229376316       1.17349969E-02
  0.670467496      -1.68479513E-03  0.952148676      0.944612145      0.273075074      -7.76163768E-03  0.231802970       1.16668930E-02
  0.691061556      -2.01110821E-03  0.951712549      0.943954051      0.275624812      -4.80961381E-03  0.233936429       1.16113620E-02
  0.711657524      -2.17632344E-03  0.951331139      0.943381369      0.277831674      -2.66083842E-03  0.235808715       1.15656732E-02
  0.732254088      -2.22215871E-03  0.950991690      0.942874670      0.279776156      -1.04391703E-03  0.237471268       1.15280179E-02
  0.752850711      -2.17781961E-03  0.950684607      0.942418873      0.281517863       1.93686661E-04  0.238967180       1.14966100E-02
  0.773447096      -2.06502923E-03  0.950403452      0.942003369      0.283099353       1.14453537E-03  0.240329027       1.14697823E-02
  0.794043124      -1.90079887E-03  0.950142920      0.941620290      0.284550697       1.86772505E-03  0.241580307       1.14468271E-02
  0.814638793      -1.69908674E-03  0.949899852      0.941264451      0.285892218       2.40157498E-03  0.242737398       1.14270765E-02
  0.835234165      -1.47186557E-03  0.949672461      0.940932572      0.287136674       2.77119735E-03  0.243810579       1.14095565E-02
  0.855829418      -1.22986489E-03  0.949459612      0.940622926      0.288290501       2.99234665E-03  0.244804934       1.13942381E-02
  0.876424611      -9.83132166E-04  0.949261665      0.940335512      0.289352715       3.07365460E-03  0.245719507       1.13805244E-02
  0.897019863      -7.41501746E-04  0.949079335      0.940071821      0.290315449       3.01772053E-03  0.246547341       1.13690421E-02
  0.917615294      -5.15037973E-04  0.948915660      0.939835608      0.291160941       2.82200333E-03  0.247273386       1.13591962E-02
  0.938211024      -3.14505887E-04  0.948775470      0.939633667      0.291858107       2.47847871E-03  0.247871071       1.13511235E-02
  0.958807051      -1.51938104E-04  0.948666096      0.939477265      0.292355925       1.97340385E-03  0.248296931       1.13460869E-02
  0.979403377      -4.13848684E-05  0.948599815      0.939384401      0.292571247       1.28683215E-03  0.248480141       1.13450121E-02
   2.05831341E-02   2.13901419E-02  0.959500968      0.943764746      0.338639200      -9.56887845E-04  0.288579702       4.19095159E-07
   2.05696747E-02   4.28216718E-02  0.959615231      0.943922102      0.338188112      -7.12457055E-04  0.288187921       4.13507223E-07
   2.05562152E-02   6.42531961E-02  0.959693432      0.944029570      0.337885320      -5.10772108E-04  0.287924945       1.73225999E-07
   2.05427557E-02   8.56847242E-02  0.959743917      0.944099009      0.337695628      -3.47735244E-04  0.287760079       1.67638063E-08
   2.05292962E-02  0.107116252      0.959773362      0.944139600      0.337591082      -2.19476467E-04  0.287669152       1.28522515E-07
   2.05158386E-02  0.128547773      0.959787309      0.944158852      0.337548673      -1.22059515E-04  0.287632138       1.13621354E-07
   2.05023792E-02  0.149979308      0.959790647      0.944163382      0.337548912      -5.15128449E-05  0.287632108       6.14672899E-08
   2.04889197E-02  0.171410829      0.959787071      0.944158375      0.337575585      -3.95136249E-06  0.287655056      -2.42143869E-08
   2.04754602E-02  0.192842364      0.959779561      0.944148004      0.337615579       2.44172261E-05  0.287689626      -3.91155481E-08
   2.04620007E-02  0.214273885      0.959770918      0.944136202      0.337658495       3.73000767E-05  0.287726671       4.09781933E-08
   2.04485413E-02  0.235705420      0.959762990      0.944125235      0.337696344       3.82082180E-05  0.287759393       2.23517418E-08
   2.04350818E-02  0.257136941      0.959757090      0.944117188      0.337723553       3.06707771E-05  0.287782937       1.22934580E-07
   2.04216223E-02  0.278568476      0.959753990      0.944113076      0.337737203       1.81778159E-05  0.287794739       2.51457095E-07
   4.11660746E-02   2.12874860E-02  0.959562063      0.943849027      0.338241249      -1.66411011E-03  0.288239241       5.01051545E-07
   4.11391705E-02   4.27269116E-02  0.959664524      0.943989992      0.337872148      -1.20808464E-03  0.287916899       4.04193997E-07
   4.11122665E-02   6.41663373E-02  0.959732115      0.944083035      0.337634742      -8.48293770E-04  0.287709624       3.40864062E-07
   4.10853624E-02   8.56057554E-02  0.959773362      0.944139719      0.337499917      -5.65818802E-04  0.287591785       2.47731805E-07
   4.10584584E-02  0.107045181      0.959794462      0.944168687      0.337442577      -3.47871188E-04  0.287541419       1.04308128E-07
   4.10315543E-02  0.128484607      0.959801137      0.944177926      0.337440848      -1.84654156E-04  0.287539423       1.76951289E-07
   4.10046503E-02  0.149924025      0.959798276      0.944173753      0.337475777      -6.80636003E-05  0.287569374      -8.94069672E-08
   4.09777500E-02  0.171363458      0.959789276      0.944161475      0.337531477       9.20716593E-06  0.287617326       2.04890966E-08
   4.09508459E-02  0.192802876      0.959777355      0.944145143      0.337595344       5.39474604E-05  0.287672460       1.54599547E-07
   4.09239419E-02  0.214242309      0.959765255      0.944128335      0.337656915       7.26074577E-05  0.287725687      -1.86264515E-08
   4.08970378E-02  0.235681728      0.959754765      0.944113970      0.337708503       7.12182373E-05  0.287770271       4.28408384E-08
   4.08701338E-02  0.257121146      0.959747255      0.944103658      0.337744683       5.57535022E-05  0.287801534       8.75443220E-08
   4.08432297E-02  0.278560579      0.959743500      0.944098413      0.337762445       3.19378196E-05  0.287816912       1.86264515E-08
   6.17486648E-02   2.11365297E-02  0.959682703      0.944015741      0.337629914      -2.23003794E-03  0.287713706       1.11572444E-06
   6.17083460E-02   4.25875671E-02  0.959757984      0.944118917      0.337387234      -1.61259947E-03  0.287499517       6.61239028E-07
   6.16680235E-02   6.40386045E-02  0.959804475      0.944182694      0.337252200      -1.11943262E-03  0.287380010       3.63215804E-07
   6.16277009E-02   8.54896381E-02  0.959828079      0.944215119      0.337203234      -7.31029257E-04  0.287335962       2.83122063E-07
   6.15873821E-02  0.106940672      0.959834397      0.944223940      0.337218940      -4.32027795E-04  0.287348509       3.63215804E-07
   6.15470596E-02  0.128391713      0.959828556      0.944215834      0.337279499      -2.09561942E-04  0.287400275       3.18512321E-07
   6.15067370E-02  0.149842754      0.959814847      0.944196939      0.337367177      -5.25080286E-05  0.287475795       3.52039933E-07
   6.14664182E-02  0.171293780      0.959797084      0.944172204      0.337467045       4.93995358E-05  0.287561953       5.58793545E-08
   6.14260957E-02  0.192744821      0.959777832      0.944145918      0.337566823       1.05787985E-04  0.287648141       2.49594450E-07
   6.13857731E-02  0.214195862      0.959760129      0.944121420      0.337656498       1.25641309E-04  0.287725657       1.09896064E-07
   6.13454543E-02  0.235646889      0.959745347      0.944101155      0.337728769       1.17551455E-04  0.287788093       2.12341547E-07
   6.13051318E-02  0.257097930      0.959735096      0.944086850      0.337778330       8.97375285E-05  0.287830949       8.38190317E-08
   6.12648092E-02  0.278548956      0.959730089      0.944079816      0.337802470       5.02632392E-05  0.287851810      -7.63684511E-08
   8.23309720E-02   2.09503211E-02  0.959845304      0.944239914      0.336862355      -2.63181725E-03  0.287052363       1.40070915E-06
   8.22772533E-02   4.24156822E-02  0.959887266      0.944297254      0.336766154      -1.89060566E-03  0.286963731       9.46223736E-07
   8.22235346E-02   6.38810396E-02  0.959905684      0.944322407      0.336757660      -1.28968002E-03  0.286953002       7.26431608E-07
   8.21698159E-02   8.53464007E-02  0.959905624      0.944322169      0.336818576      -8.13232677E-04  0.287003666       5.73694706E-07
   8.21161047E-02  0.106811762      0.959891617      0.944302619      0.336929679      -4.46439837E-04  0.287098646       2.84984708E-07
   8.20623860E-02  0.128277123      0.959868133      0.944270432      0.337072402      -1.75361449E-04  0.287221432       4.33996320E-07
   8.20086673E-02  0.149742484      0.959839642      0.944231093      0.337230176       1.30887929E-05  0.287357569       3.05473804E-07
   8.19549561E-02  0.171207845      0.959809244      0.944189191      0.337388635       1.31517867E-04  0.287494421       3.24100256E-07
   8.19012374E-02  0.192673206      0.959779978      0.944148958      0.337536097       1.91960426E-04  0.287621856       4.06056643E-07
   8.18475187E-02  0.214138567      0.959754288      0.944113493      0.337663144       2.05845281E-04  0.287731647       2.44006515E-07
   8.17938000E-02  0.235603914      0.959733725      0.944085181      0.337762773       1.84069009E-04  0.287817776       2.79396772E-07
   8.17400888E-02  0.257069290      0.959719598      0.944065690      0.337830037       1.37233306E-04  0.287875921       2.23517418E-07
   8.16863701E-02  0.278534651      0.959712684      0.944055974      0.337862551       7.56669324E-05  0.287904054       1.49011612E-08
  0.102913015       2.07400341E-02  0.960039377      0.944507539      0.335972786      -2.86942394E-03  0.286284417       1.79186463E-06
  0.102845922       4.22215685E-02  0.960045040      0.944514811      0.336035073      -2.02736072E-03  0.286332011       1.17160380E-06
  0.102778830       6.37031049E-02  0.960031211      0.944495261      0.336170733      -1.33830484E-03  0.286445558       6.31436706E-07
  0.102711737       8.51846412E-02  0.960002244      0.944455266      0.336361289      -7.90306425E-04  0.286608189       6.03497028E-07
  0.102644645      0.106666178      0.959962904      0.944401205      0.336587340      -3.69880581E-04  0.286802530       6.85453415E-07
  0.102577560      0.128147706      0.959917724      0.944338739      0.336830556      -6.28472262E-05  0.287012339       4.22820449E-07
  0.102510467      0.149629250      0.959870398      0.944273412      0.337074608       1.45482627E-04  0.287223190       2.73808837E-07
  0.102443375      0.171110779      0.959824264      0.944209874      0.337305427       2.69710377E-04  0.287422687       2.99885869E-07
  0.102376282      0.192592323      0.959782124      0.944151938      0.337511808       3.24086461E-04  0.287601084       4.15369868E-07
  0.102309190      0.214073852      0.959746301      0.944102407      0.337685108       3.22296808E-04  0.287750959       1.93715096E-07
  0.102242097      0.235555395      0.959718227      0.944063902      0.337818593       2.77597312E-04  0.287866294       3.91155481E-07
  0.102175005      0.257036924      0.959699154      0.944037676      0.337907702       2.02863186E-04  0.287943363       3.87430191E-07
  0.102107912      0.278518468      0.959689915      0.944024801      0.337950498       1.10407513E-04  0.287980378       2.44006515E-07
  0.123494908       2.05156635E-02  0.960259020      0.944810688      0.334979117      -2.94505665E-03  0.285425186       2.43075192E-06
  0.123414457       4.20144573E-02  0.960226238      0.944764733      0.335211188      -2.01415480E-03  0.285619140       1.53481960E-06
  0.123333998       6.35132566E-02  0.960176408      0.944695592      0.335507333      -1.25021744E-03  0.285871327       1.03935599E-06
  0.123253539       8.50120485E-02  0.960114479      0.944610178      0.335846007      -6.44371496E-04  0.286162138       9.05245543E-07
  0.123173088      0.106510840      0.960045755      0.944515049      0.336205661      -1.84164892E-04  0.286472261       3.93018126E-07
  0.123092629      0.128009632      0.959974468      0.944416761      0.336566865       1.45289625E-04  0.286784291       2.88709998E-07
  0.123012170      0.149508432      0.959904611      0.944320321      0.336912632       3.60257865E-04  0.287083268       8.38190317E-08
  0.122931719      0.171007231      0.959839344      0.944230795      0.337228984       4.77394700E-04  0.287356853       4.30271029E-07
  0.122851260      0.192506030      0.959781706      0.944151521      0.337505221       5.13268169E-04  0.287595659       5.90458512E-07
  0.122770801      0.214004815      0.959733784      0.944085240      0.337733150       4.83900745E-04  0.287792772       2.53319740E-07
  0.122690350      0.235503614      0.959696770      0.944034219      0.337906510       4.04799241E-04  0.287942678       2.42143869E-07
  0.122609891      0.257002413      0.959671915      0.944000065      0.338021487       2.90874450E-04  0.288042009       2.92435288E-07
  0.122529432      0.278501213      0.959659874      0.943983197      0.338076174       1.56678114E-04  0.288089305      -2.79396772E-08
  0.144076750       2.02865545E-02  0.960501909      0.945145845      0.333887607      -2.85805808E-03  0.284480125       3.04169953E-06
  0.143982932       4.18029726E-02  0.960427999      0.945042849      0.334304273      -1.84226851E-03  0.284833580       1.76951289E-06
  0.143889114       6.33193925E-02  0.960338295      0.944918752      0.334779292      -1.01153378E-03  0.285240680       1.21071935E-06
  0.143795297       8.48358124E-02  0.960239112      0.944781899      0.335285932      -3.59005906E-04  0.285677105       9.64850187E-07
  0.143701479      0.106352232      0.960136354      0.944639802      0.335798681       1.27904335E-04  0.286120087       4.06056643E-07
  0.143607661      0.127868652      0.960034907      0.944500029      0.336295575       4.65555204E-04  0.286549777       3.07336450E-07
  0.143513858      0.149385065      0.959938824      0.944367707      0.336758524       6.72301627E-04  0.286950260       3.68803740E-07
  0.143420041      0.170901492      0.959851563      0.944247782      0.337173432       7.67431455E-04  0.287309170       6.14672899E-07
  0.143326223      0.192417905      0.959776103      0.944143593      0.337529808       7.70177692E-04  0.287617445       3.01748514E-07
  0.143232405      0.213934317      0.959713995      0.944058001      0.337820202       6.99048280E-04  0.287868470       2.58907676E-07
  0.143138587      0.235450745      0.959666491      0.943992734      0.338039190       5.71858836E-04  0.288057685       4.28408384E-07
  0.143044770      0.256967157      0.959635079      0.943949342      0.338183492       4.05613508E-04  0.288182378       3.22237611E-07
  0.142950952      0.278483570      0.959619820      0.943928063      0.338251561       2.16650835E-04  0.288241178       7.45058060E-09