 title = "grid"
                                   variables = "x","y","rho","P","u","v","M","S"
 zone n=         750  e =        1372  et=quadrilateral, f=fepoint
   0.00000000       0.00000000      0.959443569      0.943685174      0.338906497      -5.61168301E-04  0.288810283      -2.12341547E-07
   1.00000000       0.00000000      0.948610902      0.939381421      0.292385131       8.19221488E-04  0.248322487       1.13255540E-02
   1.00000000      0.300000012      0.956407249      0.939526141      0.351649493       1.71498232E-05  0.299856156       2.04108655E-05
   0.00000000      0.300000012      0.959795952      0.944170594      0.337585598       5.13055693E-06  0.287663072      -2.42143869E-08
   1.00000000       2.14285720E-02  0.951026142      0.939460874      0.304973334       1.03414163E-03  0.259332657       7.85010308E-03
   1.00000000       4.28571440E-02  0.953534901      0.939502776      0.319853842       1.15056580E-03  0.272338837       4.20643389E-03
   1.00000000       6.42857179E-02  0.954896986      0.939528704      0.330233514       1.13512028E-03  0.281373322       2.23558582E-03
   1.00000000       8.57142881E-02  0.955632627      0.939542711      0.337646604       1.04848249E-03  0.287797928       1.17238797E-03
   1.00000000      0.107142858      0.956022799      0.939548790      0.342859060       9.26903216E-04  0.292299211       6.07384369E-04
   1.00000000      0.128571436      0.956222475      0.939549685      0.346387893       7.92300969E-04  0.295338064       3.15988436E-04
   1.00000000      0.150000006      0.956321180      0.939547658      0.348655075       6.58107107E-04  0.297286510       1.69323757E-04
   1.00000000      0.171428576      0.956368625      0.939543843      0.350040317       5.32016740E-04  0.298475504       9.57790762E-05
   1.00000000      0.192857146      0.956390917      0.939539492      0.350845248       4.17295087E-04  0.299165905       5.85559756E-05
   1.00000000      0.214285716      0.956401169      0.939535260      0.351285785       3.14667879E-04  0.299543738       3.90391797E-05
   1.00000000      0.235714287      0.956405699      0.939531744      0.351508766       2.22869799E-04  0.299735069       2.86437571E-05
   1.00000000      0.257142872      0.956407726      0.939529538      0.351605266       1.39109892E-04  0.299817979       2.32961029E-05
   1.00000000      0.278571427      0.956408739      0.939528584      0.351629317       5.98753068E-05  0.299838781       2.08169222E-05
  0.979591846      0.300000012      0.956415892      0.939537644      0.351604074       3.32904528E-05  0.299816966       2.00141221E-05
  0.959183693      0.300000012      0.956435204      0.939564049      0.351527542       3.02170338E-05  0.299750507       1.98166817E-05
  0.938775539      0.300000012      0.956450939      0.939585745      0.351461977       2.48465058E-05  0.299693584       1.99247152E-05
  0.918367326      0.300000012      0.956461608      0.939600289      0.351413637       1.67499275E-05  0.299651742       1.97645277E-05
  0.897959173      0.300000012      0.956465185      0.939605355      0.351389825       5.40526526E-06  0.299631178       1.99005008E-05
  0.877551019      0.300000012      0.956459224      0.939597189      0.351399601      -9.86128271E-06  0.299639881       1.99805945E-05
  0.857142866      0.300000012      0.956441164      0.939572453      0.351453453      -2.96204871E-05  0.299686939       2.00606883E-05
  0.836734712      0.300000012      0.956407785      0.939526618      0.351562917      -5.44593095E-05  0.299782336       2.01221555E-05
  0.816326559      0.300000012      0.956355810      0.939455271      0.351741344      -8.49952339E-05  0.299937725       2.02562660E-05
  0.795918345      0.300000012      0.956281662      0.939353108      0.352002889      -1.21517922E-04  0.300165474       2.00960785E-05
  0.775510192      0.300000012      0.956181526      0.939215302      0.352362603      -1.64339566E-04  0.300478548       1.99954957E-05
  0.755102038      0.300000012      0.956051826      0.939036787      0.352835506      -2.13243242E-04  0.300889999       1.98241323E-05
  0.734693885      0.300000012      0.955889225      0.938812852      0.353435487      -2.67576805E-04  0.301411986       1.93864107E-05
  0.714285731      0.300000012      0.955691159      0.938540697      0.354173332      -3.25619942E-04  0.302053750       1.96360052E-05
  0.693877578      0.300000012      0.955457747      0.938219488      0.355053872      -3.84324871E-04  0.302819610       1.92336738E-05
  0.673469365      0.300000012      0.955191374      0.937852919      0.356071860      -4.38712246E-04  0.303704888       1.88350677E-05
  0.653061211      0.300000012      0.954899311      0.937450945      0.357206702      -4.81320807E-04  0.304691613       1.82893127E-05
  0.632653058      0.300000012      0.954595387      0.937032938      0.358415186      -5.01531817E-04  0.305741966       1.79242343E-05
  0.612244904      0.300000012      0.954302609      0.936629891      0.359623432      -4.85710625E-04  0.306791544       1.71754509E-05
  0.591836751      0.300000012      0.954053938      0.936287642      0.360720277      -4.17831732E-04  0.307743311       1.65253878E-05
  0.571428597      0.300000012      0.953889310      0.936061025      0.361558646      -2.86345079E-04  0.308469206       1.60764903E-05
  0.551020384      0.300000012      0.953843892      0.935998380      0.361983657      -9.87465974E-05  0.308834702       1.58026814E-05
  0.530612230      0.300000012      0.953930318      0.936116934      0.361891687       1.09927096E-04  0.308750659       1.56518072E-05
  0.510204077      0.300000012      0.954135418      0.936398625      0.361283720       2.92291952E-04  0.308218807       1.55381858E-05
  0.489795923      0.300000012      0.954442978      0.936821043      0.360230565       4.40455507E-04  0.307300687       1.52960420E-05
  0.469387770      0.300000012      0.954841316      0.937367737      0.358801842       5.74124162E-04  0.306056619       1.45249069E-05
  0.448979586      0.300000012      0.955314338      0.938016713      0.357058853       6.99654280E-04  0.304540098       1.32359564E-05
  0.428571433      0.300000012      0.955839872      0.938738167      0.355064988       8.09285208E-04  0.302806586       1.21258199E-05
  0.408163279      0.300000012      0.956382096      0.939482033      0.352926582       8.67859519E-04  0.300949156       1.03078783E-05
  0.387755096      0.300000012      0.956907094      0.940202534      0.350775421       8.67086870E-04  0.299082220       8.58865678E-06
  0.367346942      0.300000012      0.957392991      0.940869451      0.348720819       8.21339141E-04  0.297300428       6.97746873E-06
  0.346938789      0.300000012      0.957827985      0.941466451      0.346833616       7.48260703E-04  0.295664728       5.33089042E-06
  0.326530606      0.300000012      0.958208263      0.941988528      0.345149368       6.62986306E-04  0.294205666       4.03821468E-06
  0.306122452      0.300000012      0.958534658      0.942436934      0.343679219       5.75023063E-04  0.292932540       3.12365592E-06
  0.285714298      0.300000012      0.958810151      0.942815244      0.342419982       4.89448081E-04  0.291842520       2.13645399E-06
  0.265306115      0.300000012      0.959038973      0.943129599      0.341359913       4.09350032E-04  0.290925145       1.42492354E-06
  0.244897962      0.300000012      0.959225655      0.943386137      0.340482354       3.36511410E-04  0.290165931       9.07108188E-07
  0.224489793      0.300000012      0.959375441      0.943591893      0.339767992       2.71886413E-04  0.289548159       3.83704901E-07
  0.204081640      0.300000012      0.959493399      0.943754137      0.339196593       2.15744541E-04  0.289054096       1.65775418E-07
  0.183673471      0.300000012      0.959584415      0.943879247      0.338748246       1.67797160E-04  0.288666576      -8.75443220E-08
  0.163265303      0.300000012      0.959652901      0.943973601      0.338403612       1.27781852E-04  0.288368732      -3.16649675E-08
  0.142857149      0.300000012      0.959703147      0.944042742      0.338144481       9.50812027E-05  0.288144886      -6.14672899E-08
  0.122448981      0.300000012      0.959738970      0.944091916      0.337954313       6.90157176E-05  0.287980705      -1.99303031E-07
  0.102040820      0.300000012      0.959763467      0.944125593      0.337818384       4.86879071E-05  0.287863433      -2.99885869E-07
   8.16326514E-02  0.300000012      0.959779263      0.944147527      0.337724179       3.33411590E-05  0.287782192      -9.31322575E-08
   6.12244904E-02  0.300000012      0.959789038      0.944161057      0.337661028       2.20046495E-05  0.287727773      -5.58793545E-08
   4.08163257E-02  0.300000012      0.959794223      0.944168210      0.337620437       1.39220010E-05  0.287692875      -3.35276127E-08
   2.04081628E-02  0.300000012      0.959796011      0.944170594      0.337596238       7.97732537E-06  0.287672132      -1.09896064E-07
   0.00000000      0.278571427      0.959796846      0.944171727      0.337581158       1.24004437E-05  0.287659228      -1.65775418E-07
   0.00000000      0.257142872      0.959799945      0.944176137      0.337567836       1.97815771E-05  0.287647694       1.86264515E-09
   0.00000000      0.235714287      0.959805667      0.944183886      0.337542981       2.34807994E-05  0.287626207      -1.39698386E-07
   0.00000000      0.214285716      0.959812880      0.944193900      0.337510258       2.12696777E-05  0.287597895      -5.77419996E-08
   0.00000000      0.192857146      0.959820032      0.944203675      0.337475330       1.10102537E-05  0.287567675      -1.26659870E-07
   0.00000000      0.171428576      0.959825099      0.944210768      0.337446779      -9.44011026E-06  0.287543029       5.58793545E-09
   0.00000000      0.150000006      0.959825695      0.944211602      0.337435544      -4.23802157E-05  0.287533432      -7.45058060E-09
   0.00000000      0.128571436      0.959818363      0.944201410      0.337455243      -8.99778679E-05  0.287550658      -1.00582838E-07
   0.00000000      0.107142858      0.959798813      0.944174588      0.337522507      -1.54105976E-04  0.287609160       6.51925802E-08
   0.00000000       8.57142881E-02  0.959763050      0.944125295      0.337656736      -2.35786021E-04  0.287725717      -3.72529030E-09
   0.00000000       6.42857179E-02  0.959705591      0.944046259      0.337880909      -3.34257871E-04  0.287920266       5.96046448E-08
   0.00000000       4.28571440E-02  0.959621191      0.943929791      0.338221550      -4.43211728E-04  0.288215756      -1.30385160E-07
   0.00000000       2.14285720E-02  0.959504068      0.943768442      0.338710368      -5.44057228E-04  0.288639486      -2.12341547E-07
   2.05965936E-02  -4.13848684E-05  0.959460735      0.943709016      0.338842958      -9.17398720E-04  0.288755715       3.16649675E-08
   4.11929786E-02  -1.51938104E-04  0.959513485      0.943781912      0.338496774      -1.82243565E-03  0.288460642       2.71946192E-07
   6.17889874E-02  -3.14505887E-04  0.959650517      0.943970978      0.337867171      -2.54141283E-03  0.287919790       6.55651093E-07
   8.23846832E-02  -5.15037973E-04  0.959835768      0.944226682      0.337055415      -3.06202192E-03  0.287220597       1.32247806E-06
  0.102980107      -7.41501746E-04  0.960054457      0.944528222      0.336110622      -3.39927617E-03  0.286405206       1.68383121E-06
  0.123575367      -9.83132166E-04  0.960299432      0.944866300      0.335055918      -3.56564554E-03  0.285493374       2.38046050E-06
  0.144170567      -1.22986489E-03  0.960567892      0.945236504      0.333899260      -3.56795336E-03  0.284491986       2.74740160E-06
  0.164765805      -1.47186557E-03  0.960859478      0.945638895      0.332638055      -3.40674794E-03  0.283398747       3.44961882E-06
  0.185361236      -1.69908674E-03  0.961175919      0.946075976      0.331261486      -3.07591609E-03  0.282204598       4.54112887E-06
  0.205956906      -1.90079887E-03  0.961521327      0.946552873      0.329750091      -2.56195944E-03  0.280893087       5.47990203E-06
  0.226552933      -2.06502923E-03  0.961900890      0.947077215      0.328075111      -1.84173312E-03  0.279439986       6.70924783E-06
  0.247149289      -2.17781961E-03  0.962322712      0.947660029      0.326196432      -8.79367581E-04  0.277811915       8.17142427E-06
  0.267745912      -2.22215871E-03  0.962797463      0.948316216      0.324058950       3.79238947E-04  0.275963187       9.80310142E-06
  0.288342476      -2.17632344E-03  0.963339388      0.949065804      0.321587622       2.01719580E-03  0.273832709       1.21798366E-05
  0.308938444      -2.01110821E-03  0.963967860      0.949935853      0.318680167       4.16582311E-03  0.271338999       1.54078007E-05
  0.329532504      -1.68479502E-03  0.964708149      0.950961888      0.315199077       7.04531139E-03  0.268377304       2.02208757E-05
  0.350121617      -1.13302853E-03  0.965592682      0.952190220      0.310968995       1.10610398E-02  0.264827311       2.80402601E-05
  0.370698810      -2.45296280E-04  0.966676414      0.953701556      0.305833519       1.75796356E-02  0.260658354       4.35635448E-05
  0.391233593       1.31973682E-03  0.967834294      0.955339193      0.300584078       2.95941904E-02  0.256932169       8.33291560E-05
  0.411623418       4.19568829E-03  0.968292534      0.956071973      0.298157215       4.94010262E-02  0.257051528       1.87341124E-04
  0.431661844       8.91561527E-03  0.966641724      0.954081476      0.303209335       7.83444494E-02  0.266411185       4.92094085E-04
  0.451005518       1.59534402E-02  0.960018456      0.945587754      0.326231956      0.113160700      0.294050872       1.17528997E-03
  0.469851911       2.42583062E-02  0.944384038      0.925139010      0.378602177      0.122796647      0.339867711       2.30002403E-03
  0.489723206       2.94313785E-02  0.927738369      0.903394639      0.425985783       7.13026822E-02  0.369917810       3.41192260E-03
  0.510276794       2.94313785E-02  0.919739187      0.894479811      0.427951306      -1.61882918E-02  0.367018461       5.61826676E-03
  0.530148089       2.42583044E-02  0.920807660      0.898593009      0.387895614      -9.19725820E-02  0.341060072       8.58071074E-03
  0.548994482       1.59534402E-02  0.930444539      0.913784146      0.333808452     -0.114503928      0.300962567       1.07690431E-02
  0.568338156       8.91561527E-03  0.943575382      0.932585061      0.293036520      -8.63165557E-02  0.259698600       1.15157235E-02
  0.588376582       4.19568783E-03  0.950484514      0.942390501      0.272793591      -5.46100326E-02  0.236134604       1.17612462E-02
  0.608766437       1.31973659E-03  0.952782214      0.945640683      0.266479105      -3.30706723E-02  0.227798969       1.18238702E-02
  0.629301190      -2.45296367E-04  0.953137815      0.946103811      0.267056108      -1.95422973E-02  0.227146819       1.17911156E-02
  0.649878383      -1.13302865E-03  0.952734172      0.945475042      0.270005882      -1.20739136E-02  0.229299888       1.17193023E-02
  0.670467496      -1.68479513E-03  0.952222645      0.944701433      0.272986412      -7.75824301E-03  0.231725752       1.16526382E-02
  0.691061556      -2.01110821E-03  0.951782167      0.944038630      0.275535017      -4.80734184E-03  0.233858287       1.15984920E-02
  0.711657524      -2.17632344E-03  0.951396942      0.943461478      0.277741015      -2.65940395E-03  0.235729888       1.15537550E-02
  0.732254088      -2.22215871E-03  0.951053858      0.942949891      0.279684901      -1.04312634E-03  0.237392083       1.15163084E-02
  0.752850711      -2.17781961E-03  0.950743496      0.942489445      0.281426251       1.93883141E-04  0.238887876       1.14848390E-02
  0.773447096      -2.06502923E-03  0.950459063      0.942069173      0.283007860       1.14426308E-03  0.240249991       1.14576677E-02
  0.794043124      -1.90079887E-03  0.950195611      0.941681206      0.284459531       1.86701631E-03  0.241501823       1.14339180E-02
  0.814638793      -1.69908674E-03  0.949949920      0.941320539      0.285801858       2.40061712E-03  0.242659852       1.14128422E-02
  0.835234165      -1.47186557E-03  0.949719727      0.940983832      0.287047416       2.77013239E-03  0.243734196       1.13944206E-02
  0.855829418      -1.22986489E-03  0.949504197      0.940669000      0.288202494       2.99120159E-03  0.244729966       1.13775078E-02
  0.876424611      -9.83132166E-04  0.949303150      0.940376103      0.289266467       3.07246624E-03  0.245646283       1.13625834E-02
  0.897019863      -7.41501746E-04  0.949117482      0.940106690      0.290231109       3.01664323E-03  0.246476099       1.13498252E-02
  0.917615294      -5.15037973E-04  0.948950112      0.939864576      0.291078746       2.82107852E-03  0.247204259       1.13392007E-02
  0.938211024      -3.14505887E-04  0.948805630      0.939656496      0.291778207       2.47773947E-03  0.247804135       1.13309566E-02
  0.958807051      -1.51938104E-04  0.948691547      0.939493477      0.292278588       1.97289046E-03  0.248232409       1.13257868E-02
  0.979403377      -4.13848684E-05  0.948620319      0.939393938      0.292496800       1.28658372E-03  0.248418346       1.13249440E-02
   2.05831341E-02   2.13901419E-02  0.959543288      0.943822682      0.338493794      -9.57724929E-04  0.288453281       4.28408384E-08
   2.05696747E-02   4.28216718E-02  0.959657431      0.943979979      0.338042617      -7.13069516E-04  0.288061410       1.50874257E-07
   2.05562152E-02   6.42531961E-02  0.959735572      0.944087565      0.337739706      -5.11283812E-04  0.287798315       1.19209290E-07
   2.05427557E-02   8.56847242E-02  0.959785938      0.944156885      0.337549895      -3.48228728E-04  0.287633389       9.87201929E-08
   2.05292962E-02  0.107116252      0.959815502      0.944197476      0.337445259      -2.19987734E-04  0.287542373      -4.47034836E-08
   2.05158386E-02  0.128547773      0.959829509      0.944216967      0.337402552      -1.22534722E-04  0.287505090       1.82539225E-07
   2.05023792E-02  0.149979308      0.959832728      0.944221437      0.337402582      -5.20274989E-05  0.287504882       1.52736902E-07
   2.04889197E-02  0.171410829      0.959829330      0.944216371      0.337429017      -4.48432911E-06  0.287527680      -2.47731805E-07
   2.04754602E-02  0.192842364      0.959821880      0.944206297      0.337468892       2.38695029E-05  0.287562072      -5.02914190E-08
   2.04620007E-02  0.214273885      0.959813356      0.944194555      0.337511450       3.67646462E-05  0.287598848       1.86264515E-09
   2.04485413E-02  0.235705420      0.959805489      0.944183588      0.337548912       3.76199168E-05  0.287631243      -1.84401870E-07
   2.04350818E-02  0.257136941      0.959799767      0.944175661      0.337575763       2.99318108E-05  0.287654489      -2.19792128E-07
   2.04216223E-02  0.278568476      0.959796727      0.944171548      0.337589025       1.70836120E-05  0.287665963      -1.75088644E-07
   4.11660746E-02   2.12874860E-02  0.959614277      0.943920553      0.338089228      -1.66475575E-03  0.288106620       1.37835741E-07
   4.11391705E-02   4.27269116E-02  0.959716558      0.944061339      0.337720215      -1.20867393E-03  0.287784338       3.16649675E-08
   4.11122665E-02   6.41663373E-02  0.959784091      0.944154382      0.337482661      -8.48909083E-04  0.287576973       1.43423676E-07
   4.10853624E-02   8.56057554E-02  0.959825218      0.944210827      0.337347806      -5.66452101E-04  0.287459105      -1.02445483E-07
   4.10584584E-02  0.107045181      0.959846437      0.944240034      0.337290376      -3.48476722E-04  0.287408650      -9.12696123E-08
   4.10315543E-02  0.128484607      0.959852993      0.944249392      0.337288409      -1.85316196E-04  0.287406445       2.71946192E-07
   4.10046503E-02  0.149924025      0.959850073      0.944245279      0.337323070      -6.87471984E-05  0.287436098       1.45286322E-07
   4.09777500E-02  0.171363458      0.959841311      0.944232881      0.337378651       8.51543246E-06  0.287484050      -2.01165676E-07
   4.09508459E-02  0.192802876      0.959829509      0.944216669      0.337442338       5.32248705E-05  0.287539005      -2.04890966E-07
   4.09239419E-02  0.214242309      0.959817410      0.944200158      0.337503612       7.18307347E-05  0.287591934       5.58793545E-09
   4.08970378E-02  0.235681728      0.959807098      0.944185853      0.337554872       7.03244732E-05  0.287636250      -1.26659870E-07
   4.08701338E-02  0.257121146      0.959799528      0.944175482      0.337590814       5.46766532E-05  0.287667304      -5.96046448E-08
   4.08432297E-02  0.278560579      0.959795713      0.944170237      0.337608486       3.05467947E-05  0.287682593      -4.09781933E-08
   6.17486648E-02   2.11365297E-02  0.959744453      0.944100440      0.337471694      -2.23043817E-03  0.287575305       7.72997737E-07
   6.17083460E-02   4.25875671E-02  0.959819734      0.944203436      0.337228924      -1.61310227E-03  0.287360996       5.77419996E-08
   6.16680235E-02   6.40386045E-02  0.959866047      0.944267213      0.337093920      -1.12000189E-03  0.287241489       1.02445483E-07
   6.16277009E-02   8.54896381E-02  0.959889650      0.944299757      0.337044895      -7.31700624E-04  0.287197381       1.41561031E-07
   6.15873821E-02  0.106940672      0.959896088      0.944308400      0.337060511      -4.32768808E-04  0.287209898      -1.26659870E-07
   6.15470596E-02  0.128391713      0.959890187      0.944300294      0.337120861      -2.10411454E-04  0.287261486      -8.75443220E-08
   6.15067370E-02  0.149842754      0.959876597      0.944281518      0.337208331      -5.33704806E-05  0.287336797      -1.89989805E-07
   6.14664182E-02  0.171293780      0.959858716      0.944256842      0.337308109       4.84993070E-05  0.287422895      -2.55182385E-07
   6.14260957E-02  0.192744821      0.959839582      0.944230616      0.337407708       1.04821200E-04  0.287508905      -8.94069672E-08
   6.13857731E-02  0.214195862      0.959821701      0.944206059      0.337497205       1.24608996E-04  0.287586242      -3.53902578E-08
   6.13454543E-02  0.235646889      0.959807158      0.944185853      0.337569207       1.16411822E-04  0.287648499      -2.10478902E-07
   6.13051318E-02  0.257097930      0.959796846      0.944171727      0.337618679       8.84541078E-05  0.287691206      -1.65775418E-07
   6.12648092E-02  0.278548956      0.959791720      0.944164574      0.337642699       4.87703546E-05  0.287712038      -1.86264515E-07
   8.23309720E-02   2.09503211E-02  0.959916294      0.944337487      0.336698264      -2.63199699E-03  0.286908358       1.21071935E-06
   8.22772533E-02   4.24156822E-02  0.959958255      0.944394648      0.336602032      -1.89095631E-03  0.286819696       4.93600965E-07
   8.22235346E-02   6.38810396E-02  0.959976494      0.944419801      0.336593658      -1.29022310E-03  0.286809057       5.27128577E-07
   8.21698159E-02   8.53464007E-02  0.959976494      0.944419146      0.336654425      -8.13972380E-04  0.286859661      -1.26659870E-07
   8.21161047E-02  0.106811762      0.959962547      0.944399774      0.336765379      -4.47316270E-04  0.286954492      -3.18512321E-07
   8.20623860E-02  0.128277123      0.959939182      0.944367707      0.336907893      -1.76378686E-04  0.287077069      -1.39698386E-07
   8.20086673E-02  0.149742484      0.959910572      0.944328368      0.337065458       1.20237728E-05  0.287212998      -1.02445483E-07
   8.19549561E-02  0.171207845      0.959880292      0.944286585      0.337223858       1.30355111E-04  0.287349820      -2.16066837E-07
   8.19012374E-02  0.192673206      0.959850967      0.944246233      0.337371171       1.90741092E-04  0.287477136      -1.71363354E-07
   8.18475187E-02  0.214138567      0.959825277      0.944210768      0.337498009       2.04606316E-04  0.287586778      -2.49594450E-07
   8.17938000E-02  0.235603914      0.959804714      0.944182515      0.337597549       1.82745891E-04  0.287672788      -1.56462193E-07
   8.17400888E-02  0.257069290      0.959790647      0.944162965      0.337664813       1.35802693E-04  0.287730962      -3.55765224E-07
   8.16863701E-02  0.278534651      0.959783494      0.944153130      0.337697178       7.41408949E-05  0.287758946      -3.44589353E-07
  0.102913015       2.07400341E-02  0.960119069      0.944617093      0.335803449      -2.86936061E-03  0.286135435       1.53854489E-06
  0.102845922       4.22215685E-02  0.960124731      0.944624186      0.335865676      -2.02757935E-03  0.286183000       8.27014446E-07
  0.102778830       6.37031049E-02  0.960110843      0.944604695      0.336001307      -1.33884221E-03  0.286296487       4.28408384E-07
  0.102711737       8.51846412E-02  0.960081995      0.944564641      0.336191684      -7.91099737E-04  0.286458999       8.75443220E-08
  0.102644645      0.106666178      0.960042775      0.944510579      0.336417586      -3.70884110E-04  0.286653221      -3.72529030E-09
  0.102577560      0.128147706      0.959997475      0.944448113      0.336660624      -6.39963473E-05  0.286862850      -9.87201929E-08
  0.102510467      0.149629250      0.959950149      0.944382787      0.336904436       1.44222417E-04  0.287073463      -2.51457095E-07
  0.102443375      0.171110779      0.959903955      0.944319308      0.337135226       2.68362608E-04  0.287272960      -8.38190317E-08
  0.102376282      0.192592323      0.959861815      0.944261312      0.337341458       3.22698877E-04  0.287451237      -2.98023224E-08
  0.102309190      0.214073852      0.959825993      0.944211781      0.337514579       3.20881314E-04  0.287600935      -2.53319740E-07
  0.102242097      0.235555395      0.959797919      0.944173157      0.337648034       2.76136328E-04  0.287716299      -1.75088644E-07
  0.102175005      0.257036924      0.959778965      0.944147050      0.337737143       2.01384973E-04  0.287793308      -1.43423676E-07
  0.102107912      0.278518468      0.959769309      0.944133878      0.337779760       1.08928740E-04  0.287830144      -7.82310963E-08
  0.123494908       2.05156635E-02  0.960346997      0.944931626      0.334805101      -2.94483383E-03  0.285271734       2.11969018E-06
  0.123414457       4.20144573E-02  0.960314274      0.944885373      0.335037023      -2.01436039E-03  0.285465568       9.22009349E-07
  0.123333998       6.35132566E-02  0.960264206      0.944816232      0.335333109      -1.25085108E-03  0.285717696       6.78002834E-07
  0.123253539       8.50120485E-02  0.960202396      0.944730818      0.335671574      -6.45297463E-04  0.286008358       4.56348062E-07
  0.123173088      0.106510840      0.960133553      0.944635808      0.336031109      -1.85307726E-04  0.286318362       2.29105353E-07
  0.123092629      0.128009632      0.960062206      0.944537461      0.336392075       1.43968209E-04  0.286630154       1.47148967E-07
  0.123012170      0.149508432      0.959992409      0.944441080      0.336737514       3.58831574E-04  0.286928833      -8.75443220E-08
  0.122931719      0.171007231      0.959927499      0.944351435      0.337053865       4.75919369E-04  0.287202448      -3.72529030E-07
  0.122851260      0.192506030      0.959869802      0.944272101      0.337329984       5.11681254E-04  0.287441194      -2.73808837E-07
  0.122770801      0.214004815      0.959821641      0.944205880      0.337557703       4.82298463E-04  0.287638068      -1.28522515E-07
  0.122690350      0.235503614      0.959784687      0.944155157      0.337731034       4.03287850E-04  0.287787884       6.89178705E-08
  0.122609891      0.257002413      0.959759712      0.944120705      0.337845951       2.89384479E-04  0.287887186      -9.31322575E-09
  0.122529432      0.278501213      0.959747374      0.944103658      0.337900490       1.55261005E-04  0.287934333      -8.19563866E-08
  0.144076750       2.02865545E-02  0.960597575      0.945277154      0.333709508      -2.85774074E-03  0.284322768       2.50898302E-06
  0.143982932       4.18029726E-02  0.960523427      0.945173979      0.334126025      -1.84250495E-03  0.284676105       1.39139593E-06
  0.143889114       6.33193925E-02  0.960433722      0.945049584      0.334600925      -1.01224345E-03  0.285083145       5.28991222E-07
  0.143795297       8.48358124E-02  0.960334539      0.944912851      0.335107356      -3.60042526E-04  0.285519361       3.98606062E-07
  0.143701479      0.106352232      0.960231781      0.944771051      0.335619867       1.26587125E-04  0.285962075       1.32247806E-07
  0.143607661      0.127868652      0.960130155      0.944631159      0.336116433       4.64057812E-04  0.286391467       2.47731805E-07
  0.143513858      0.149385065      0.960034311      0.944498837      0.336579055       6.70673035E-04  0.286791682      -3.53902578E-08
  0.143420041      0.170901492      0.959947348      0.944378793      0.336993843       7.65711477E-04  0.287150562      -3.40864062E-07
  0.143326223      0.192417905      0.959871709      0.944274664      0.337350160       7.68391241E-04  0.287458688      -3.40864062E-07
  0.143232405      0.213934317      0.959809601      0.944189191      0.337640315       6.97389769E-04  0.287709534      -2.70083547E-07
  0.143138587      0.235450745      0.959762156      0.944124043      0.337859273       5.70258708E-04  0.287898690      -6.70552254E-08
  0.143044770      0.256967157      0.959730387      0.944080412      0.338003486       4.04103281E-04  0.288023293       9.68575478E-08
  0.142950952      0.278483570      0.959714830      0.944058955      0.338071465       2.15210559E-04  0.288082004       2.42143869E-08