 title = "grid"
                                   variables = "x","y","rho","P","u","v","M","S"
 zone n=         750  e =        1372  et=quadrilateral, f=fepoint
   0.00000000       0.00000000      0.961573362      0.946619928      0.330002695      -6.17758662E-04  0.281097919       5.40167093E-07
   1.00000000       0.00000000      0.952617764      0.939258635      0.324554503       7.55383167E-04  0.276243180       5.29375486E-03
   1.00000000      0.300000012      0.954473555      0.939290166      0.344169229      -1.39660158E-04  0.293217659       2.60267407E-03
   0.00000000      0.300000012      0.961638987      0.946709871      0.329475850       1.91868075E-05  0.280644894       0.00000000    
   1.00000000       2.14285720E-02  0.952759922      0.939373732      0.325198025       5.69494499E-04  0.276794255       5.20741753E-03
   1.00000000       4.28571440E-02  0.952903926      0.939408898      0.326551318       2.04361320E-04  0.277961522       5.03323227E-03
   1.00000000       6.42857179E-02  0.953049004      0.939390302      0.328329057      -2.54540384E-04  0.279498816       4.80031408E-03
   1.00000000       8.57142881E-02  0.953205049      0.939348519      0.330393165      -7.15441420E-04  0.281285822       4.52659279E-03
   1.00000000      0.107142858      0.953371763      0.939299524      0.332621515      -1.11900328E-03  0.283216029       4.22962755E-03
   1.00000000      0.128571436      0.953545034      0.939252973      0.334893882      -1.42654846E-03  0.285184860       3.92561965E-03
   1.00000000      0.150000006      0.953719139      0.939214826      0.337094039      -1.61489414E-03  0.287091166       3.62939574E-03
   1.00000000      0.171428576      0.953887641      0.939189672      0.339115411      -1.67364557E-03  0.288842291       3.35528329E-03
   1.00000000      0.192857146      0.954044163      0.939179063      0.340867639      -1.60313456E-03  0.290359885       3.11434083E-03
   1.00000000      0.214285716      0.954182625      0.939183354      0.342281103      -1.41290121E-03  0.291583657       2.91575119E-03
   1.00000000      0.235714287      0.954298317      0.939201415      0.343311518      -1.11991086E-03  0.292475432       2.76519917E-03
   1.00000000      0.257142872      0.954387903      0.939231157      0.343942016      -7.47413898E-04  0.293020815       2.66545080E-03
   1.00000000      0.278571427      0.954451084      0.939270258      0.344187260      -3.26530571E-04  0.293232769       2.61437707E-03
  0.979591846      0.300000012      0.954465866      0.939279497      0.344361722      -1.94493230E-04  0.293382168       2.60255300E-03
  0.959183693      0.300000012      0.954464138      0.939267397      0.344802409      -2.18345100E-04  0.293759227       2.59218924E-03
  0.938775539      0.300000012      0.954473972      0.939258039      0.345263332      -2.31159982E-04  0.294154942       2.56785378E-03
  0.918367326      0.300000012      0.954486907      0.939240992      0.345753640      -2.48881552E-04  0.294577330       2.53067724E-03
  0.897959173      0.300000012      0.954495609      0.939208269      0.346289396      -2.74593884E-04  0.295040280       2.48313323E-03
  0.877551019      0.300000012      0.954494715      0.939153433      0.346887499      -3.08458984E-04  0.295558393       2.42600590E-03
  0.857142866      0.300000012      0.954480112      0.939072073      0.347564250      -3.50211514E-04  0.296145618       2.36083567E-03
  0.836734712      0.300000012      0.954448283      0.938959897      0.348335087      -3.99365352E-04  0.296815187       2.28800438E-03
  0.816326559      0.300000012      0.954396725      0.938813627      0.349213958      -4.55363770E-04  0.297579288       2.20789574E-03
  0.795918345      0.300000012      0.954323232      0.938631117      0.350213736      -5.17179549E-04  0.298448861       2.12125108E-03
  0.775510192      0.300000012      0.954226553      0.938411057      0.351344436      -5.83376328E-04  0.299432456       2.02863291E-03
  0.755102038      0.300000012      0.954106748      0.938153327      0.352611899      -6.51476032E-04  0.300535113       1.92975067E-03
  0.734693885      0.300000012      0.953965008      0.937860548      0.354016185      -7.17948948E-04  0.301756829       1.82561576E-03
  0.714285731      0.300000012      0.953804672      0.937537909      0.355548143      -7.77865353E-04  0.303089410       1.71682425E-03
  0.693877578      0.300000012      0.953631580      0.937193513      0.357186854      -8.24694172E-04  0.304514706       1.60356052E-03
  0.673469365      0.300000012      0.953454733      0.936840832      0.358895898      -8.50165030E-04  0.306000978       1.48679130E-03
  0.653061211      0.300000012      0.953286588      0.936497629      0.360620379      -8.44878436E-04  0.307500511       1.36725605E-03
  0.632653058      0.300000012      0.953143120      0.936187029      0.362285167      -7.98797235E-04  0.308948010       1.24628283E-03
  0.612244904      0.300000012      0.953043938      0.935936749      0.363794208      -7.02574733E-04  0.310259998       1.12459250E-03
  0.591836751      0.300000012      0.953011751      0.935779214      0.365033865      -5.48818382E-04  0.311337948       1.00352615E-03
  0.571428597      0.300000012      0.953070343      0.935748219      0.365877241      -3.34506971E-04  0.312071830       8.84369016E-04
  0.551020384      0.300000012      0.953239679      0.935871840      0.366194785      -6.59685757E-05  0.312349617       7.67698511E-04
  0.530612230      0.300000012      0.953529656      0.936164975      0.365873486       2.37967979E-04  0.312074244       6.55092299E-04
  0.510204077      0.300000012      0.953932285      0.936618865      0.364847422       5.47121861E-04  0.311189622       5.48744574E-04
  0.489795923      0.300000012      0.954421818      0.937201560      0.363136351       8.30584730E-04  0.309713751       4.52434644E-04
  0.469387770      0.300000012      0.954969347      0.937875867      0.360850751       1.07096822E-03  0.307742566       3.68762761E-04
  0.448979586      0.300000012      0.955551565      0.938610494      0.358150244       1.26175303E-03  0.305413544       2.98470259E-04
  0.428571433      0.300000012      0.956147909      0.939376414      0.355192631       1.39587035E-03  0.302862823       2.40707770E-04
  0.408163279      0.300000012      0.956735849      0.940140188      0.352117866       1.46099203E-03  0.300211608       1.92819163E-04
  0.387755096      0.300000012      0.957296073      0.940873206      0.349058479       1.45495113E-03  0.297574371       1.52695924E-04
  0.367346942      0.300000012      0.957814157      0.941554010      0.346130967       1.38779986E-03  0.295051605       1.18561089E-04
  0.346938789      0.300000012      0.958280861      0.942169905      0.343425274       1.27499993E-03  0.292720407       9.05022025E-05
  0.326530606      0.300000012      0.958692789      0.942715108      0.340999573       1.13434659E-03  0.290630877       6.72824681E-05
  0.306122452      0.300000012      0.959051192      0.943191290      0.338881105       9.82284429E-04  0.288805991       4.89950180E-05
  0.285714298      0.300000012      0.959360838      0.943604290      0.337070674       8.31382757E-04  0.287246197       3.48351896E-05
  0.265306115      0.300000012      0.959628522      0.943962991      0.335550666       6.90156070E-04  0.285936147       2.43149698E-05
  0.244897962      0.300000012      0.959861517      0.944276571      0.334292799       5.63336594E-04  0.284851372       1.65794045E-05
  0.224489793      0.300000012      0.960067093      0.944554746      0.333263427       4.53099550E-04  0.283962667       1.13155693E-05
  0.204081640      0.300000012      0.960252225      0.944806218      0.332428426       3.59590660E-04  0.283240706       7.54557550E-06
  0.183673471      0.300000012      0.960422516      0.945038438      0.331755608       2.81807530E-04  0.282657713       5.07757068E-06
  0.163265303      0.300000012      0.960582674      0.945257425      0.331215829       2.18242567E-04  0.282188594       3.30619514E-06
  0.142857149      0.300000012      0.960736036      0.945467591      0.330784023       1.67161401E-04  0.281811863       2.14762986E-06
  0.122448981      0.300000012      0.960884750      0.945671856      0.330438942       1.26729254E-04  0.281509250       1.46217644E-06
  0.102040820      0.300000012      0.961029828      0.945871413      0.330163151       9.51798575E-05  0.281265855       1.08592212E-06
   8.16326514E-02  0.300000012      0.961171448      0.946066141      0.329943120       7.09574088E-05  0.281070173       6.42612576E-07
   6.12244904E-02  0.300000012      0.961308718      0.946255028      0.329768270       5.25598371E-05  0.280913234       3.94880772E-07
   4.08163257E-02  0.300000012      0.961439788      0.946435511      0.329631299       3.85464809E-05  0.280788928       2.34693289E-07
   2.04081628E-02  0.300000012      0.961561143      0.946602643      0.329528600       2.69587799E-05  0.280694366       1.28522515E-07
   0.00000000      0.278571427      0.961647928      0.946722150      0.329450727       1.77609963E-05  0.280622989      -1.49011612E-08
   0.00000000      0.257142872      0.961654186      0.946730912      0.329414248       1.01172855E-05  0.280591518       9.68575478E-08
   0.00000000      0.235714287      0.961661398      0.946740866      0.329374194      -7.24829124E-06  0.280556977       1.28522515E-07
   0.00000000      0.214285716      0.961668670      0.946750760      0.329335302      -3.66034910E-05  0.280523449       1.67638063E-08
   0.00000000      0.192857146      0.961674690      0.946759284      0.329303831      -7.99339105E-05  0.280496269       2.30967999E-07
   0.00000000      0.171428576      0.961678028      0.946763813      0.329287291      -1.38651027E-04  0.280481994       1.80676579E-07
   0.00000000      0.150000006      0.961676836      0.946762204      0.329293907      -2.13354171E-04  0.280487716       1.82539225E-07
   0.00000000      0.128571436      0.961669624      0.946752489      0.329331666      -3.03599401E-04  0.280520350       4.73111868E-07
   0.00000000      0.107142858      0.961654961      0.946732342      0.329407752      -4.06929437E-04  0.280586094       5.10364771E-07
   0.00000000       8.57142881E-02  0.961632490      0.946701348      0.329525918      -5.18162211E-04  0.280688226       4.67523932E-07
   0.00000000       6.42857179E-02  0.961603463      0.946661234      0.329682678      -6.26530091E-04  0.280823618       3.76254320E-07
   0.00000000       4.28571440E-02  0.961573362      0.946619809      0.329858333      -7.09109241E-04  0.280975133       4.20957804E-07
   0.00000000       2.14285720E-02  0.961556911      0.946597219      0.329991430      -7.13162764E-04  0.281089425       5.56930900E-07
   2.05965936E-02  -4.13848684E-05  0.961487114      0.946501195      0.330027997      -9.63820901E-04  0.281125188       7.00354576E-07
   4.11929786E-02  -1.51938104E-04  0.961326122      0.946279645      0.329941124      -1.75477273E-03  0.281063348       1.00955367E-06
   6.17889874E-02  -3.14505887E-04  0.961252153      0.946178079      0.329650134      -2.45389761E-03  0.280823529       1.47335231E-06
   8.23846832E-02  -5.15037973E-04  0.961249590      0.946175039      0.329224914      -2.98342947E-03  0.280465126       1.99489295E-06
  0.102980107      -7.41501746E-04  0.961297929      0.946242094      0.328711212      -3.33855208E-03  0.280027568       2.38604844E-06
  0.123575367      -9.83132166E-04  0.961385250      0.946363032      0.328131735      -3.52742826E-03  0.279530466       3.06218863E-06
  0.144170567      -1.22986489E-03  0.961506605      0.946530879      0.327495247      -3.55633977E-03  0.278981447       3.67127359E-06
  0.164765805      -1.47186557E-03  0.961660922      0.946744084      0.326802015      -3.42625170E-03  0.278380781       4.27849591E-06
  0.185361236      -1.69908674E-03  0.961849689      0.947005212      0.326046675      -3.13156983E-03  0.277723849       5.25452197E-06
  0.205956906      -1.90079887E-03  0.962076366      0.947318971      0.325218737      -2.65915948E-03  0.277001888       6.56954944E-06
  0.226552933      -2.06502923E-03  0.962346256      0.947692931      0.324302167      -1.98637019E-03  0.276201397       8.60728323E-06
  0.247149289      -2.17781961E-03  0.962665796      0.948136568      0.323274553      -1.07752683E-03  0.275303841       1.17924064E-05
  0.267745912      -2.22215871E-03  0.963043869      0.948663056      0.322104275       1.22146346E-04  0.274283409       1.72071159E-05
  0.288342476      -2.17632344E-03  0.963491261      0.949289262      0.320745468       1.69850525E-03  0.273103446       2.68500298E-05
  0.308938444      -2.01110821E-03  0.964021206      0.950036824      0.319127381       3.79173202E-03  0.271708876       4.42769378E-05
  0.329532504      -1.68479502E-03  0.964647591      0.950932920      0.317127943       6.64962549E-03  0.270007193       7.76946545E-05
  0.350121617      -1.13302853E-03  0.965371430      0.951994359      0.314486444       1.07775433E-02  0.267807573       1.43159181E-04
  0.370698810      -2.45296280E-04  0.966373980      0.953502417      0.310720921       1.76627170E-02  0.264800459       2.72821635E-04
  0.391233593       1.31973682E-03  0.968124688      0.956155598      0.305847049       3.01262569E-02  0.261359543       5.17489389E-04
  0.411623418       4.19568829E-03  0.970514119      0.959860265      0.301341861       5.01508787E-02  0.259612143       9.33538191E-04
  0.431661844       8.91561527E-03  0.973035991      0.963987887      0.300177366       7.80196190E-02  0.263352543       1.59130804E-03
  0.451005518       1.59534402E-02  0.973621070      0.965704381      0.310909390      0.107670277      0.279214472       2.52878200E-03
  0.469851911       2.42583062E-02  0.963054240      0.952320337      0.344649553      0.110620834      0.307637364       3.84991616E-03
  0.489723206       2.94313785E-02  0.942383111      0.925581276      0.381826073       6.43283650E-02  0.330206513       5.74736670E-03
  0.510276794       2.94313785E-02  0.923239708      0.901520848      0.391042680      -1.13971317E-02  0.334590703       8.14077258E-03
  0.530148089       2.42583044E-02  0.910981417      0.886419058      0.366896212      -7.95389712E-02  0.321652710       9.96043906E-03
  0.548994482       1.59534402E-02  0.911665976      0.887719214      0.328739792     -0.106517866      0.295969635       1.03744417E-02
  0.568338156       8.91561527E-03  0.925366402      0.906147122      0.301298469      -9.11180750E-02  0.268839866       1.00381300E-02
  0.588376582       4.19568783E-03  0.938875198      0.924366295      0.287739217      -6.34295344E-02  0.250969321       9.65490937E-03
  0.608766437       1.31973659E-03  0.947224915      0.935494721      0.283866733      -4.00657915E-02  0.243803352       9.22640227E-03
  0.629301190      -2.45296367E-04  0.951326191      0.940754235      0.285496473      -2.41798386E-02  0.243509218       8.78422894E-03
  0.649878383      -1.13302865E-03  0.952767909      0.942358732      0.289270014      -1.49389496E-02  0.246151894       8.36829282E-03
  0.670467496      -1.68479513E-03  0.953167617      0.942562222      0.293195039      -9.59007908E-03  0.249318451       7.99698755E-03
  0.691061556      -2.01110821E-03  0.953310966      0.942452371      0.296745211      -6.10059127E-03  0.252289414       7.66989775E-03
  0.711657524      -2.17632344E-03  0.953371823      0.942264318      0.299937069      -3.62450839E-03  0.255001456       7.38097727E-03
  0.732254088      -2.22215871E-03  0.953394711      0.942054212      0.302836776      -1.77693099E-03  0.257484138       7.12431222E-03
  0.752850711      -2.17781961E-03  0.953391314      0.941833615      0.305499196      -3.60654347E-04  0.259773493       6.89509511E-03
  0.773447096      -2.06502923E-03  0.953364849      0.941603422      0.307963729       7.35685520E-04  0.261898100       6.68958947E-03
  0.794043124      -1.90079887E-03  0.953317821      0.941363394      0.310257703       1.57953438E-03  0.263878733       6.50368445E-03
  0.814638793      -1.69908674E-03  0.953252733      0.941114366      0.312399954       2.21341918E-03  0.265730053       6.33467548E-03
  0.835234165      -1.47186557E-03  0.953172922      0.940858662      0.314402640       2.66441074E-03  0.267461598       6.18014112E-03
  0.855829418      -1.22986489E-03  0.953082502      0.940599203      0.316272289       2.94897519E-03  0.269078463       6.03716448E-03
  0.876424611      -9.83132166E-04  0.952986002      0.940340817      0.318010569       3.07561946E-03  0.270581722       5.90420142E-03
  0.897019863      -7.41501746E-04  0.952888966      0.940089047      0.319613725       3.04621831E-03  0.271967977       5.77898137E-03
  0.917615294      -5.15037973E-04  0.952797353      0.939851344      0.321071535       2.85662315E-03  0.273228288       5.66071086E-03
  0.938211024      -3.14505887E-04  0.952717721      0.939636171      0.322364002       2.49694334E-03  0.274345487       5.54874539E-03
  0.958807051      -1.51938104E-04  0.952656090      0.939452589      0.323452801       1.95408450E-03  0.275286853       5.44388592E-03
  0.979403377      -4.13848684E-05  0.952604771      0.939294636      0.324238390       1.23908289E-03  0.275968194       5.35120443E-03
   2.05831341E-02   2.13901419E-02  0.961475074      0.946484506      0.329952687      -1.10424694E-03  0.281062156       6.35161996E-07
   2.05696747E-02   4.28216718E-02  0.961534679      0.946566641      0.329771936      -9.63411760E-04  0.280904323       5.94183803E-07
   2.05562152E-02   6.42531961E-02  0.961577654      0.946625829      0.329590261      -7.99278961E-04  0.280746698       5.88595867E-07
   2.05427557E-02   8.56847242E-02  0.961607754      0.946667433      0.329444110      -6.35565841E-04  0.280620098       7.26431608E-07
   2.05292962E-02  0.107116252      0.961626709      0.946693242      0.329343438      -4.83790005E-04  0.280533105       3.29688191E-07
   2.05158386E-02  0.128547773      0.961635888      0.946705937      0.329287052      -3.49905808E-04  0.280484349       3.93018126E-07
   2.05023792E-02  0.149979308      0.961637318      0.946707964      0.329268664      -2.36958265E-04  0.280468524       4.65661287E-07
   2.04889197E-02  0.171410829      0.961633146      0.946701825      0.329279810      -1.45980172E-04  0.280478269       9.31322575E-09
   2.04754602E-02  0.192842364      0.961625099      0.946690857      0.329311609      -7.64638971E-05  0.280505776       1.50874257E-07
   2.04620007E-02  0.214273885      0.961615264      0.946677268      0.329355478      -2.69208595E-05  0.280543745       1.30385160E-07
   2.04485413E-02  0.235705420      0.961605251      0.946663439      0.329403698       4.90172715E-06  0.280585408       1.22934580E-07
   2.04350818E-02  0.257136941      0.961596072      0.946650803      0.329450369       2.18278346E-05  0.280625671       1.22934580E-07
   2.04216223E-02  0.278568476      0.961588681      0.946640551      0.329491198       2.65608633E-05  0.280660897       4.65661287E-08
   4.11660746E-02   2.12874860E-02  0.961371124      0.946341753      0.329788029      -1.75738602E-03  0.280930281       1.12317502E-06
   4.11391705E-02   4.27269116E-02  0.961464643      0.946470559      0.329600304      -1.43282593E-03  0.280763626       1.10454857E-06
   4.11122665E-02   6.41663373E-02  0.961519301      0.946545660      0.329433352      -1.13508943E-03  0.280617237       8.13975930E-07
   4.10853624E-02   8.56057554E-02  0.961549520      0.946587324      0.329310954      -8.70036893E-04  0.280510545       8.40052962E-07
   4.10584584E-02  0.107045181      0.961562872      0.946605742      0.329238534      -6.39655162E-04  0.280447632       8.53091478E-07
   4.10315543E-02  0.128484607      0.961564004      0.946606934      0.329212427      -4.44792939E-04  0.280425072       4.37721610E-07
   4.10046503E-02  0.149924025      0.961556256      0.946596384      0.329224616      -2.85482092E-04  0.280435771       5.69969416E-07
   4.09777500E-02  0.171363458      0.961542904      0.946577847      0.329265207      -1.60728378E-04  0.280471027       4.35858965E-07
   4.09508459E-02  0.192802876      0.961526573      0.946555257      0.329324186      -6.83868930E-05  0.280522197       4.04193997E-07
   4.09239419E-02  0.214242309      0.961509645      0.946531832      0.329391897      -5.46317006E-06  0.280580908       2.98023224E-07
   4.08970378E-02  0.235681728      0.961493909      0.946510136      0.329460144       3.17914528E-05  0.280639946       2.29105353E-07
   4.08701338E-02  0.257121146      0.961480916      0.946492255      0.329522759       4.75203960E-05  0.280694067       3.27825546E-07
   4.08432297E-02  0.278560579      0.961471379      0.946478963      0.329577327       4.48208702E-05  0.280741125       1.78813934E-07
   6.17486648E-02   2.11365297E-02  0.961320102      0.946271956      0.329467952      -2.32735905E-03  0.280663550       1.71735883E-06
   6.17083460E-02   4.25875671E-02  0.961417019      0.946405351      0.329309523      -1.85649248E-03  0.280520439       1.53668225E-06
   6.16680235E-02   6.40386045E-02  0.961470664      0.946479142      0.329186350      -1.43508054E-03  0.280410588       1.37649477E-06
   6.16277009E-02   8.54896381E-02  0.961495221      0.946512759      0.329110920      -1.06900558E-03  0.280343771       1.15297735E-06
   6.15873821E-02  0.106940672      0.961499393      0.946518481      0.329085827      -7.58221257E-04  0.280321419       1.11386180E-06
   6.15470596E-02  0.128391713      0.961489379      0.946504414      0.329106182      -5.01141360E-04  0.280338973       7.82310963E-07
   6.15067370E-02  0.149842754      0.961469948      0.946477532      0.329162985      -2.95711943E-04  0.280388296       7.00354576E-07
   6.14664182E-02  0.171293780      0.961445391      0.946443498      0.329245359      -1.38993913E-04  0.280459821       5.02914190E-07
   6.14260957E-02  0.192744821      0.961418808      0.946406901      0.329342127      -2.71443769E-05  0.280543745       5.43892384E-07
   6.13857731E-02  0.214195862      0.961393118      0.946371496      0.329442739       4.44803700E-05  0.280630976       5.86733222E-07
   6.13454543E-02  0.235646889      0.961370766      0.946340621      0.329538375       8.12534054E-05  0.280713737       4.99188900E-07
   6.13051318E-02  0.257097930      0.961353481      0.946316659      0.329623222       8.84065448E-05  0.280787051       2.83122063E-07
   6.12648092E-02  0.278548956      0.961342275      0.946301222      0.329696804       6.97791183E-05  0.280850381       3.65078449E-07
   8.23309720E-02   2.09503211E-02  0.961319745      0.946271956      0.329033971      -2.75595579E-03  0.280296624       2.22586095E-06
   8.22772533E-02   4.24156822E-02  0.961400509      0.946382940      0.328917295      -2.17825687E-03  0.280188888       1.85146928E-06
   8.22235346E-02   6.38810396E-02  0.961441338      0.946439087      0.328853458      -1.65553112E-03  0.280129582       1.77323818E-06
   8.21698159E-02   8.53464007E-02  0.961452663      0.946454585      0.328842282      -1.20010157E-03  0.280117750       1.66520476E-06
   8.21161047E-02  0.106811762      0.961442649      0.946440518      0.328881562      -8.15113191E-04  0.280150801       1.33924186E-06
   8.20623860E-02  0.128277123      0.961417913      0.946406305      0.328964323      -5.00139897E-04  0.280222237       1.22003257E-06
   8.20086673E-02  0.149742484      0.961384237      0.946359575      0.329080254      -2.52626574E-04  0.280322790       8.79168510E-07
   8.19549561E-02  0.171207845      0.961345911      0.946306825      0.329217434      -6.86403728E-05  0.280441761       9.64850187E-07
   8.19012374E-02  0.192673206      0.961307287      0.946253538      0.329363257       5.69821168E-05  0.280568212       8.54954123E-07
   8.18475187E-02  0.214138567      0.961271703      0.946204305      0.329506308       1.30528060E-04  0.280692220       6.44475222E-07
   8.17938000E-02  0.235603914      0.961241722      0.946162939      0.329637617       1.58766867E-04  0.280805856       6.68689609E-07
   8.17400888E-02  0.257069290      0.961219549      0.946132302      0.329751998       1.48231906E-04  0.280904591       5.62518835E-07
   8.16863701E-02  0.278534651      0.961206436      0.946114182      0.329850346       1.04104482E-04  0.280989140       5.10364771E-07
  0.102913015       2.07400341E-02  0.961360931      0.946328938      0.328518033      -3.02990037E-03  0.279856801       2.46986747E-06
  0.102845922       4.22215685E-02  0.961415350      0.946404099      0.328444451      -2.37176311E-03  0.279786289       2.65985727E-06
  0.102778830       6.37031049E-02  0.961434782      0.946430445      0.328446418      -1.76778843E-03  0.279783666       2.20537186E-06
  0.102711737       8.51846412E-02  0.961426020      0.946418405      0.328510910      -1.23690581E-03  0.279837072       2.20723450E-06
  0.102644645      0.106666178      0.961396694      0.946377814      0.328628570      -7.87696510E-04  0.279937863       1.98557973E-06
  0.102577560      0.128147706      0.961353481      0.946317911      0.328788519      -4.22594952E-04  0.280076087       1.61863863E-06
  0.102510467      0.149629250      0.961301982      0.946246684      0.328978240      -1.40135133E-04  0.280240536       1.37835741E-06
  0.102443375      0.171110779      0.961247683      0.946171582      0.329183519       6.36810219E-05  0.280418605       1.08219683E-06
  0.102376282      0.192592323      0.961194932      0.946098864      0.329390526       1.94951193E-04  0.280598074       1.05239451E-06
  0.102309190      0.214073852      0.961147785      0.946033716      0.329586715       2.61290028E-04  0.280767977       8.75443220E-07
  0.102242097      0.235555395      0.961109102      0.945980489      0.329762965       2.70881515E-04  0.280920416       9.14558768E-07
  0.102175005      0.257036924      0.961081266      0.945942163      0.329914838       2.31692495E-04  0.281051368       1.01141632E-06
  0.102107912      0.278518468      0.961066008      0.945921063      0.330044359       1.50612716E-04  0.281162590       8.60542059E-07
  0.123494908       2.05156635E-02  0.961437404      0.946435034      0.327937305      -3.14812688E-03  0.279358536       3.23168933E-06
  0.123414457       4.20144573E-02  0.961460769      0.946466982      0.327905238      -2.42407224E-03  0.279324651       2.95601785E-06
  0.123333998       6.35132566E-02  0.961452425      0.946455240      0.327975899      -1.75256492E-03  0.279381722       2.66171992E-06
  0.123253539       8.50120485E-02  0.961417973      0.946407914      0.328124106      -1.15824421E-03  0.279507697       2.82563269E-06
  0.123173088      0.106510840      0.961364508      0.946333945      0.328332037      -6.55091193E-04  0.279686779       2.55741179E-06
  0.123092629      0.128009632      0.961298287      0.946242392      0.328583360      -2.49185425E-04  0.279904276       2.26125121E-06
  0.123012170      0.149508432      0.961225688      0.946142018      0.328861237       5.89453703E-05  0.280145198       1.88127160E-06
  0.122931719      0.171007231      0.961152315      0.946040750      0.329148769       2.72842532E-04  0.280394554       1.71549618E-06
  0.122851260      0.192506030      0.961083174      0.945945323      0.329429954       3.99184588E-04  0.280638248       1.54040754E-06
  0.122770801      0.214004815      0.961022675      0.945861757      0.329690933       4.46774997E-04  0.280864179       1.35414302E-06
  0.122690350      0.235503614      0.960973978      0.945794702      0.329922348       4.25247214E-04  0.281064153       1.39325857E-06
  0.122609891      0.257002413      0.960939944      0.945747793      0.330120414       3.44173517E-04  0.281234801       1.39325857E-06
  0.122529432      0.278501213      0.960921943      0.945723116      0.330288172       2.12169136E-04  0.281378657       1.48452818E-06
  0.144076750       2.02865545E-02  0.961546719      0.946586192      0.327298582      -3.11021996E-03  0.278807759       3.68990004E-06
  0.143982932       4.18029726E-02  0.961535633      0.946570933      0.327306867      -2.32602889E-03  0.278809905       3.78116965E-06
  0.143889114       6.33193925E-02  0.961494982      0.946514845      0.327448934      -1.59442006E-03  0.278929532       3.66754830E-06
  0.143795297       8.48358124E-02  0.961430073      0.946425259      0.327688456      -9.45069885E-04  0.279135197       3.55020165E-06
  0.143701479      0.106352232      0.961347520      0.946311116      0.327998310      -3.96923337E-04  0.279403061       3.13483179E-06
  0.143607661      0.127868652      0.961253941      0.946182072      0.328355134       4.00395838E-05  0.279712260       3.09012830E-06
  0.143513858      0.149385065      0.961156428      0.946047366      0.328736395       3.63147003E-04  0.280042946       2.73250043E-06
  0.143420041      0.170901492      0.961060822      0.945915341      0.329121202       5.75307931E-04  0.280376643       2.43261456E-06
  0.143326223      0.192417905      0.960972786      0.945793748      0.329490513       6.83740247E-04  0.280696630       2.13645399E-06
  0.143232405      0.213934317      0.960896909      0.945689142      0.329828978       6.98447810E-04  0.280989408       2.03773379E-06
  0.143138587      0.235450745      0.960836887      0.945606470      0.330126673       6.30646828E-04  0.281246424       2.06939876E-06
  0.143044770      0.256967157      0.960795641      0.945549428      0.330380380       4.91673767E-04  0.281464815       1.86637044E-06
  0.142950952      0.278483570      0.960774660      0.945520639      0.330594122       2.91968288E-04  0.281647891       2.00606883E-06