 title = "grid"
                                   variables = "x","y","rho","P","u","v","M","S"
 zone n=         750  e =        1372  et=quadrilateral, f=fepoint
   0.00000000       0.00000000      0.962297618      0.947618127      0.326935291      -6.25336368E-04  0.278443187       4.37721610E-07
   1.00000000       0.00000000      0.952780366      0.939307630      0.317641616       7.32476474E-04  0.270375282       5.10699488E-03
   1.00000000      0.300000012      0.954427361      0.939301252      0.336856186      -1.35583192E-04  0.286978602       2.68223882E-03
   0.00000000      0.300000012      0.962436616      0.947809339      0.326206207      -2.32513557E-07  0.277813792      -2.04890966E-08
   1.00000000       2.14285720E-02  0.952908754      0.939411223      0.318261564       5.38889202E-04  0.270906001       5.02860360E-03
   1.00000000       4.28571440E-02  0.953036606      0.939439118      0.319571495       1.68535698E-04  0.272034854       4.87045199E-03
   1.00000000       6.42857179E-02  0.953164279      0.939415514      0.321300119      -2.88811629E-04  0.273528159       4.65784222E-03
   1.00000000       8.57142881E-02  0.953301668      0.939369977      0.323313087      -7.43815792E-04  0.275268972       4.40753996E-03
   1.00000000      0.107142858      0.953449011      0.939318001      0.325490534      -1.13913696E-03  0.277152866       4.13587503E-03
   1.00000000      0.128571436      0.953602791      0.939269185      0.327714443      -1.43763621E-03  0.279077262       3.85813974E-03
   1.00000000      0.150000006      0.953757763      0.939229727      0.329871148      -1.61736493E-03  0.280943274       3.58856283E-03
   1.00000000      0.171428576      0.953907967      0.939203203      0.331856340      -1.66883529E-03  0.282660455       3.33986059E-03
   1.00000000      0.192857146      0.954047501      0.939191759      0.333581179      -1.59308815E-03  0.284151763       3.12291645E-03
   1.00000000      0.214285716      0.954171002      0.939195454      0.334976584      -1.40001648E-03  0.285357535       2.94569507E-03
   1.00000000      0.235714287      0.954273880      0.939213336      0.335997462      -1.10670715E-03  0.286238939       2.81379186E-03
   1.00000000      0.257142872      0.954353034      0.939243257      0.336625338      -7.36509217E-04  0.286780268       2.72948854E-03
   1.00000000      0.278571427      0.954408824      0.939282537      0.336872220      -3.20182095E-04  0.286992460       2.68944539E-03
  0.979591846      0.300000012      0.954426944      0.939296007      0.337046325      -1.90228471E-04  0.287141383       2.67726183E-03
  0.959183693      0.300000012      0.954443395      0.939296842      0.337486863      -2.15655236E-04  0.287519038       2.65401602E-03
  0.938775539      0.300000012      0.954475880      0.939303458      0.337957084      -2.31231796E-04  0.287923545       2.61338241E-03
  0.918367326      0.300000012      0.954514802      0.939306378      0.338466793      -2.52058584E-04  0.288363218       2.55939178E-03
  0.897959173      0.300000012      0.954552591      0.939299166      0.339031756      -2.80624896E-04  0.288851410       2.49631889E-03
  0.877551019      0.300000012      0.954584122      0.939276814      0.339667976      -3.16889986E-04  0.289401680       2.42629461E-03
  0.857142866      0.300000012      0.954605639      0.939235449      0.340390563      -3.60445993E-04  0.290027022       2.35070474E-03
  0.836734712      0.300000012      0.954614222      0.939171612      0.341213375      -4.10744484E-04  0.290739357       2.27008946E-03
  0.816326559      0.300000012      0.954607785      0.939083040      0.342149556      -4.67208127E-04  0.291549832       2.18524784E-03
  0.795918345      0.300000012      0.954584837      0.938967526      0.343210280      -5.28855773E-04  0.292468280       2.09584273E-03
  0.775510192      0.300000012      0.954544783      0.938824296      0.344404310      -5.94170881E-04  0.293502092       2.00203061E-03
  0.755102038      0.300000012      0.954487979      0.938654065      0.345736235      -6.60887512E-04  0.294655204       1.90402009E-03
  0.734693885      0.300000012      0.954416215      0.938459456      0.347204655      -7.25552323E-04  0.295926362       1.80196576E-03
  0.714285731      0.300000012      0.954333305      0.938245714      0.348799258      -7.83379131E-04  0.297306478       1.69583969E-03
  0.693877578      0.300000012      0.954245269      0.938021243      0.350498319      -8.28052929E-04  0.298776776       1.58570521E-03
  0.673469365      0.300000012      0.954161227      0.937799215      0.352264792      -8.51633027E-04  0.300304919       1.47223100E-03
  0.653061211      0.300000012      0.954093397      0.937596619      0.354043931      -8.44933908E-04  0.301843494       1.35572255E-03
  0.632653058      0.300000012      0.954056740      0.937435389      0.355760992      -7.98165333E-04  0.303327531       1.23751722E-03
  0.612244904      0.300000012      0.954069912      0.937341988      0.357321560      -7.02182180E-04  0.304675192       1.11855194E-03
  0.591836751      0.300000012      0.954154193      0.937346518      0.358613431      -5.49737015E-04  0.305789262       9.99744982E-04
  0.571428597      0.300000012      0.954331458      0.937479913      0.359511793      -3.37683887E-04  0.306561738       8.82003456E-04
  0.551020384      0.300000012      0.954619884      0.937768281      0.359889030      -7.19628588E-05  0.306882441       7.66457990E-04
  0.530612230      0.300000012      0.955027819      0.938224375      0.359633297       2.29116762E-04  0.306655407       6.54609874E-04
  0.510204077      0.300000012      0.955545604      0.938837111      0.358678371       5.35681844E-04  0.305824459       5.48642129E-04
  0.489795923      0.300000012      0.956146240      0.939572632      0.357042551       8.16853659E-04  0.304406613       4.52032313E-04
  0.469387770      0.300000012      0.956798732      0.940391481      0.354835331       1.05501758E-03  0.302496761       3.68075445E-04
  0.448979586      0.300000012      0.957477748      0.941259325      0.352216065       1.24337256E-03  0.300232381       2.97335908E-04
  0.428571433      0.300000012      0.958161533      0.942145646      0.349343389       1.37475808E-03  0.297750294       2.39051878E-04
  0.408163279      0.300000012      0.958826542      0.943015873      0.346358210       1.43723015E-03  0.295172364       1.90934166E-04
  0.387755096      0.300000012      0.959452629      0.943839848      0.343392760       1.42889656E-03  0.292612940       1.50470063E-04
  0.367346942      0.300000012      0.960024297      0.944595098      0.340563595       1.35980698E-03  0.290172279       1.16443262E-04
  0.346938789      0.300000012      0.960531175      0.945266783      0.337960571       1.24536431E-03  0.287927747       8.83005559E-05
  0.326530606      0.300000012      0.960968792      0.945848048      0.335642099       1.10319431E-03  0.285929322       6.53117895E-05
  0.306122452      0.300000012      0.961337626      0.946338892      0.333635867       9.49619571E-04  0.284200639       4.69218940E-05
  0.285714298      0.300000012      0.961641133      0.946744204      0.331943095       7.97239190E-04  0.282742471       3.32146883E-05
  0.265306115      0.300000012      0.961885631      0.947071135      0.330546707       6.54546777E-04  0.281540006       2.24988908E-05
  0.244897962      0.300000012      0.962077856      0.947329164      0.329418629       5.26381133E-04  0.280568808       1.52327120E-05
  0.224489793      0.300000012      0.962225139      0.947527468      0.328525186       4.14850452E-04  0.279799819       1.02352351E-05
  0.204081640      0.300000012      0.962334573      0.947674870      0.327832133       3.20246909E-04  0.279203653       6.56954944E-06
  0.183673471      0.300000012      0.962412536      0.947780252      0.327306449       2.41624934E-04  0.278751671       4.28967178E-06
  0.163265303      0.300000012      0.962464631      0.947850764      0.326918036       1.77546128E-04  0.278418034       2.91876495E-06
  0.142857149      0.300000012      0.962496102      0.947893262      0.326640010       1.26352548E-04  0.278179526       2.01538205E-06
  0.122448981      0.300000012      0.962511241      0.947913289      0.326449007       8.63152745E-05  0.278016090       1.10454857E-06
  0.102040820      0.300000012      0.962513506      0.947916150      0.326325148       5.58289503E-05  0.277910501       8.30739737E-07
   8.16326514E-02  0.300000012      0.962506294      0.947905838      0.326251358       3.33302742E-05  0.277848154       4.37721610E-07
   6.12244904E-02  0.300000012      0.962492049      0.947886050      0.326213777       1.74804336E-05  0.277816981       3.12924385E-07
   4.08163257E-02  0.300000012      0.962473214      0.947859883      0.326200664       7.05905450E-06  0.277806938       8.56816769E-08
   2.04081628E-02  0.300000012      0.962451875      0.947830439      0.326202065       1.36318670E-06  0.277809352       5.77419996E-08
   0.00000000      0.278571427      0.962435305      0.947807610      0.326199442       1.30646845E-06  0.277808070       3.16649675E-08
   0.00000000      0.257142872      0.962436140      0.947808683      0.326183170      -2.36034793E-06  0.277794182       1.86264515E-09
   0.00000000      0.235714287      0.962437928      0.947811186      0.326161444      -1.59467127E-05  0.277775586       4.84287739E-08
   0.00000000      0.214285716      0.962439775      0.947813749      0.326139420      -4.22224584E-05  0.277756691       6.70552254E-08
   0.00000000      0.192857146      0.962440491      0.947814703      0.326123655      -8.31920843E-05  0.277743250       3.72529030E-09
   0.00000000      0.171428576      0.962438583      0.947812200      0.326121628      -1.40251082E-04  0.277741641       1.28522515E-07
   0.00000000      0.150000006      0.962432683      0.947804034      0.326141417      -2.14160027E-04  0.277758837       1.00582838E-07
   0.00000000      0.128571436      0.962421119      0.947788179      0.326191306      -3.04293615E-04  0.277802050       1.82539225E-07
   0.00000000      0.107142858      0.962402403      0.947762430      0.326278746      -4.08425753E-04  0.277877718       2.88709998E-07
   0.00000000       8.57142881E-02  0.962376118      0.947726309      0.326407909      -5.21180336E-04  0.277989358       3.65078449E-07
   0.00000000       6.42857179E-02  0.962343693      0.947681725      0.326576293      -6.31570467E-04  0.278134763       5.40167093E-07
   0.00000000       4.28571440E-02  0.962310374      0.947635889      0.326765180      -7.16150156E-04  0.278297722       6.51925802E-07
   0.00000000       2.14285720E-02  0.962290585      0.947608531      0.326913416      -7.20867887E-04  0.278425127       5.06639481E-07
   2.05965936E-02  -4.13848684E-05  0.962248385      0.947550416      0.326938629      -9.70959663E-04  0.278449595       6.33299351E-07
   4.11929786E-02  -1.51938104E-04  0.962183952      0.947462142      0.326785952      -1.75961375E-03  0.278326005       1.20513141E-06
   6.17889874E-02  -3.14505887E-04  0.962222397      0.947515428      0.326403767      -2.45524896E-03  0.278002053       1.50687993E-06
   8.23846832E-02  -5.15037973E-04  0.962339222      0.947676778      0.325871825      -2.98152585E-03  0.277546018       1.78068876E-06
  0.102980107      -7.41501746E-04  0.962509334      0.947911680      0.325240552      -3.33415018E-03  0.277001411       2.20909715E-06
  0.123575367      -9.83132166E-04  0.962717116      0.948198557      0.324536562      -3.52132064E-03  0.276391625       2.58535147E-06
  0.144170567      -1.22986489E-03  0.962953985      0.948525846      0.323771954      -3.54944635E-03  0.275727123       3.31178308E-06
  0.164765805      -1.47186557E-03  0.963216007      0.948887765      0.322949946      -3.41971940E-03  0.275010943       3.87430191E-06
  0.185361236      -1.69908674E-03  0.963502228      0.949283659      0.322067022      -3.12695163E-03  0.274240166       5.07198274E-06
  0.205956906      -1.90079887E-03  0.963814318      0.949715436      0.321114510      -2.65841093E-03  0.273407727       6.36093318E-06
  0.226552933      -2.06502923E-03  0.964155912      0.950188577      0.320077956      -1.99201540E-03  0.272501498       8.33161175E-06
  0.247149289      -2.17781961E-03  0.964532554      0.950711191      0.318935901      -1.09288224E-03  0.271503896       1.13993883E-05
  0.267745912      -2.22215871E-03  0.964951813      0.951295137      0.317657948       9.28782465E-05  0.270390153       1.70338899E-05
  0.288342476      -2.17632344E-03  0.965424120      0.951956093      0.316198856       1.64960430E-03  0.269124240       2.65482813E-05
  0.308938444      -2.01110821E-03  0.965961635      0.952714860      0.314489096       3.71546322E-03  0.267651945       4.40347940E-05
  0.329532504      -1.68479502E-03  0.966577351      0.953596830      0.312407792       6.53455872E-03  0.265881866       7.72550702E-05
  0.350121617      -1.13302853E-03  0.967271507      0.954618037      0.309696406       1.06047951E-02  0.263624638       1.42492354E-04
  0.370698810      -2.45296280E-04  0.968222380      0.956054330      0.305877507       1.73909161E-02  0.260573685       2.70361081E-04
  0.391233593       1.31973682E-03  0.969895542      0.958598197      0.300964206       2.96666659E-02  0.257095665       5.10392711E-04
  0.411623418       4.19568829E-03  0.972192466      0.962167978      0.296408683       4.93708886E-02  0.255281866       9.15805809E-04
  0.431661844       8.91561527E-03  0.974634409      0.966170251      0.295134246       7.67645612E-02  0.258859754       1.55474525E-03
  0.451005518       1.59534402E-02  0.975219309      0.967862070      0.305563569      0.105863132      0.274344742       2.46432703E-03
  0.469851911       2.42583062E-02  0.964898348      0.954774916      0.338625133      0.108629987      0.302145153       3.74584552E-03
  0.489723206       2.94313785E-02  0.944648981      0.928544462      0.375065535       6.29752949E-02  0.324200839       5.58156334E-03
  0.510276794       2.94313785E-02  0.925803721      0.904795229      0.384107232      -1.15006790E-02  0.328524172       7.88364559E-03
  0.530148089       2.42583044E-02  0.913575649      0.889654040      0.360462159      -7.83988386E-02  0.315932125       9.62208584E-03
  0.548994482       1.59534402E-02  0.913969040      0.890530825      0.323092729     -0.104765534      0.290812969       1.00044608E-02
  0.568338156       8.91561527E-03  0.927137136      0.908238471      0.296259999      -8.95172209E-02  0.264273077       9.66699980E-03
  0.588376582       4.19568783E-03  0.940140247      0.925771773      0.283029914      -6.22797385E-02  0.246820033       9.28913802E-03
  0.608766437       1.31973659E-03  0.948128283      0.936412394      0.279258341      -3.93292345E-02  0.239831880       8.87231901E-03
  0.629301190      -2.45296367E-04  0.951995194      0.941362143      0.280843675      -2.37338189E-02  0.239543810       8.44600610E-03
  0.649878383      -1.13302865E-03  0.953286946      0.942774236      0.284500867      -1.46677932E-02  0.242105111       8.04658979E-03
  0.670467496      -1.68479513E-03  0.953580618      0.942845762      0.288284361      -9.42216534E-03  0.245158672       7.69127160E-03
  0.691061556      -2.01110821E-03  0.953641593      0.942635119      0.291685283      -6.00040657E-03  0.248006523       7.37826899E-03
  0.711657524      -2.17632344E-03  0.953637779      0.942368805      0.294724077      -3.57326563E-03  0.250590622       7.10138306E-03
  0.732254088      -2.22215871E-03  0.953612149      0.942100763      0.297467738      -1.76345347E-03  0.252941847       6.85446523E-03
  0.752850711      -2.17781961E-03  0.953575432      0.941841185      0.299971849      -3.77335731E-04  0.255097091       6.63287006E-03
  0.773447096      -2.06502923E-03  0.953529596      0.941589177      0.302277118       6.94713148E-04  0.257086188       6.43251836E-03
  0.794043124      -1.90079887E-03  0.953474998      0.941342413      0.304412514       1.51928107E-03  0.258931428       6.25060685E-03
  0.814638793      -1.69908674E-03  0.953411877      0.941098809      0.306398660       2.13845936E-03  0.260649055       6.08448312E-03
  0.835234165      -1.47186557E-03  0.953341186      0.940857708      0.308249444       2.57912092E-03  0.262250125       5.93206659E-03
  0.855829418      -1.22986489E-03  0.953263938      0.940619051      0.309973866       2.85762339E-03  0.263741940       5.79178333E-03
  0.876424611      -9.83132166E-04  0.953181803      0.940383971      0.311575562       2.98256450E-03  0.265127361       5.66248037E-03
  0.897019863      -7.41501746E-04  0.953097343      0.940154672      0.313053250       2.95578549E-03  0.266405106       5.54263219E-03
  0.917615294      -5.15037973E-04  0.953013718      0.939935029      0.314398944       2.77330261E-03  0.267568260       5.43186627E-03
  0.938211024      -3.14505887E-04  0.952934742      0.939729929      0.315595537       2.42529297E-03  0.268602282       5.32962568E-03
  0.958807051      -1.51938104E-04  0.952863872      0.939544797      0.316608310       1.89881923E-03  0.269477695       5.23673184E-03
  0.979403377      -4.13848684E-05  0.952791393      0.939369261      0.317343533       1.20398938E-03  0.270115495       5.15642017E-03
   2.05831341E-02   2.13901419E-02  0.962258279      0.947564065      0.326840907      -1.11148076E-03  0.278366178       6.33299351E-07
   2.05696747E-02   4.28216718E-02  0.962322056      0.947652102      0.326642990      -9.70463501E-04  0.278193504       7.58096576E-07
   2.05562152E-02   6.42531961E-02  0.962369502      0.947717428      0.326447427      -8.04792799E-04  0.278023839       6.38887286E-07
   2.05427557E-02   8.56847242E-02  0.962404907      0.947766066      0.326289058      -6.39535312E-04  0.277886659       4.48897481E-07
   2.05292962E-02  0.107116252      0.962429583      0.947800100      0.326176614      -4.86762961E-04  0.277789205       4.88013029E-07
   2.05158386E-02  0.128547773      0.962445319      0.947821736      0.326107979      -3.52691306E-04  0.277729720       4.26545739E-07
   2.05023792E-02  0.149979308      0.962453663      0.947833121      0.326076537      -2.40413850E-04  0.277702391       2.81259418E-07
   2.04889197E-02  0.171410829      0.962456524      0.947837114      0.326073587      -1.50887383E-04  0.277699679       2.88709998E-07
   2.04754602E-02  0.192842364      0.962455928      0.947836041      0.326090217      -8.36713443E-05  0.277713865       6.51925802E-08
   2.04620007E-02  0.214273885      0.962453365      0.947832525      0.326117903      -3.72110153E-05  0.277737588       1.09896064E-07
   2.04485413E-02  0.235705420      0.962450445      0.947828352      0.326148748      -9.23685639E-06  0.277764052      -8.00937414E-08
   2.04350818E-02  0.257136941      0.962447882      0.947825074      0.326176614       3.26225518E-06  0.277787894       2.03028321E-07
   2.04216223E-02  0.278568476      0.962447166      0.947823822      0.326195925       4.01333455E-06  0.277804434      -1.15483999E-07
   4.11660746E-02   2.12874860E-02  0.962255657      0.947560906      0.326600850      -1.76347047E-03  0.278164238       1.11944973E-06
   4.11391705E-02   4.27269116E-02  0.962354720      0.947697401      0.326391995      -1.44144637E-03  0.277979314       1.04121864E-06
   4.11122665E-02   6.41663373E-02  0.962416351      0.947782159      0.326208711      -1.14425994E-03  0.277818650       7.74860382E-07
   4.10853624E-02   8.56057554E-02  0.962455213      0.947835743      0.326072246      -8.79287778E-04  0.277699530       7.84173608E-07
   4.10584584E-02  0.107045181      0.962478459      0.947867692      0.325986475      -6.49199064E-04  0.277624696       6.89178705E-07
   4.10315543E-02  0.128484607      0.962490380      0.947884023      0.325946718      -4.55260539E-04  0.277589887       5.77419996E-07
   4.10046503E-02  0.149924025      0.962494075      0.947888911      0.325944513      -2.97523919E-04  0.277587652       3.78116965E-07
   4.09777500E-02  0.171363458      0.962492228      0.947886288      0.325969905      -1.74965491E-04  0.277609348       2.98023224E-07
   4.09508459E-02  0.192802876      0.962487280      0.947879434      0.326012880      -8.55324615E-05  0.277646184       2.27242708E-07
   4.09239419E-02  0.214242309      0.962481201      0.947870851      0.326063931      -2.61850892E-05  0.277690023       3.35276127E-08
   4.08970378E-02  0.235681728      0.962475121      0.947862744      0.326114833       6.92573758E-06  0.277733713       3.20374966E-07
   4.08701338E-02  0.257121146      0.962470829      0.947856724      0.326158196       1.84426226E-05  0.277770877       2.32830644E-07
   4.08432297E-02  0.278560579      0.962468922      0.947854102      0.326188385       1.36077761E-05  0.277796715       2.40281224E-07
   6.17486648E-02   2.11365297E-02  0.962319195      0.947648942      0.326182842      -2.33236165E-03  0.277807534       1.58324838E-06
   6.17083460E-02   4.25875671E-02  0.962422669      0.947791517      0.325999051      -1.86836184E-03  0.277642518       1.48452818E-06
   6.16680235E-02   6.40386045E-02  0.962485969      0.947878659      0.325856596      -1.45111140E-03  0.277515799       1.31502748E-06
   6.16277009E-02   8.54896381E-02  0.962522507      0.947928727      0.325765043      -1.08787313E-03  0.277434498       1.03190541E-06
   6.15873821E-02  0.106940672      0.962540567      0.947953463      0.325724870      -7.79486261E-04  0.277398556       8.45640898E-07
   6.15470596E-02  0.128391713      0.962545633      0.947960317      0.325730175      -5.24899340E-04  0.277402341       6.66826963E-07
   6.15067370E-02  0.149842754      0.962542057      0.947955191      0.325771421      -3.21997388E-04  0.277437478       4.54485416E-07
   6.14664182E-02  0.171293780      0.962533176      0.947942972      0.325837761      -1.67975304E-04  0.277494341       5.25265932E-07
   6.14260957E-02  0.192744821      0.962521791      0.947927117      0.325917959      -5.90431191E-05  0.277563334       3.53902578E-07
   6.13857731E-02  0.214195862      0.962510109      0.947911024      0.326001883       9.51966467E-06  0.277635485       3.65078449E-07
   6.13454543E-02  0.235646889      0.962499917      0.947896898      0.326080143       4.32741290E-05  0.277702719       3.12924385E-07
   6.13051318E-02  0.257097930      0.962492645      0.947886884      0.326145083       4.85294186E-05  0.277758449       3.01748514E-07
   6.12648092E-02  0.278548956      0.962488949      0.947881937      0.326190710       3.18339880E-05  0.277797520       4.39584255E-07
   8.23309720E-02   2.09503211E-02  0.962439239      0.947814763      0.325636774      -2.76073045E-03  0.277338386       1.92970037E-06
   8.22772533E-02   4.24156822E-02  0.962527752      0.947936773      0.325490534      -2.19502486E-03  0.277205080       1.87195837E-06
   8.22235346E-02   6.38810396E-02  0.962580442      0.948009253      0.325404286      -1.68096751E-03  0.277126014       1.70804560E-06
   8.21698159E-02   8.53464007E-02  0.962606728      0.948045373      0.325374782      -1.23194559E-03  0.277097672       1.54972076E-06
   8.21161047E-02  0.106811762      0.962614238      0.948055506      0.325397313      -8.52186698E-04  0.277115405       1.33924186E-06
   8.20623860E-02  0.128277123      0.962608635      0.948047400      0.325463742      -5.41466346E-04  0.277171820       9.48086381E-07
   8.20086673E-02  0.149742484      0.962594688      0.948027909      0.325563222      -2.97496998E-04  0.277257085       6.14672899E-07
   8.19549561E-02  0.171207845      0.962576151      0.948002279      0.325683624      -1.16377480E-04  0.277360648       5.83007932E-07
   8.19012374E-02  0.192673206      0.962556124      0.947974622      0.325812727       6.98076110E-06  0.277471721       5.60656190E-07
   8.18475187E-02  0.214138567      0.962537110      0.947948515      0.325939298       7.88700854E-05  0.277580589       6.46337867E-07
   8.17938000E-02  0.235603914      0.962521493      0.947926641      0.326053083       1.06538144E-04  0.277678460       2.99885869E-07
   8.17400888E-02  0.257069290      0.962510407      0.947911382      0.326146036       9.78595563E-05  0.277758211       2.99885869E-07
   8.16863701E-02  0.278534651      0.962504864      0.947903872      0.326212466       6.06240319E-05  0.277815104       4.20957804E-07
  0.102913015       2.07400341E-02  0.962602377      0.948039949      0.324999124      -3.03539331E-03  0.276788026       2.14204192E-06
  0.102845922       4.22215685E-02  0.962665856      0.948127687      0.324891925      -2.39484571E-03  0.276688457       2.40467489E-06
  0.102778830       6.37031049E-02  0.962698877      0.948173106      0.324868381      -1.80455355E-03  0.276663303       2.22213566E-06
  0.102711737       8.51846412E-02  0.962708056      0.948185503      0.324912012      -1.28430396E-03  0.276697844       1.99116766E-06
  0.102644645      0.106666178      0.962699592      0.948173463      0.325011134      -8.43334536E-04  0.276781589       1.56462193E-06
  0.102577560      0.128147706      0.962678850      0.948144555      0.325153619      -4.84472374E-04  0.276903540       1.30571425E-06
  0.102510467      0.149629250      0.962650776      0.948105633      0.325325966      -2.06450946E-04  0.277051687       1.03376806E-06
  0.102443375      0.171110779      0.962619364      0.948062241      0.325514168      -5.35508161E-06  0.277213722       9.55536962E-07
  0.102376282      0.192592323      0.962588370      0.948019326      0.325704366       1.24795799E-04  0.277377576       7.61821866E-07
  0.102309190      0.214073852      0.962560415      0.947980702      0.325884074       1.91636005E-04  0.277532250       7.04079866E-07
  0.102242097      0.235555395      0.962537706      0.947949350      0.326042384       2.04032214E-04  0.277668387       6.33299351E-07
  0.102175005      0.257036924      0.962522030      0.947927713      0.326170743       1.71316904E-04  0.277778596       6.10947609E-07
  0.102107912      0.278518468      0.962514341      0.947917223      0.326264381       1.02351434E-04  0.277858764       7.17118382E-07
  0.123494908       2.05156635E-02  0.962798655      0.948311269      0.324290931      -3.15526873E-03  0.276174545       2.90758908E-06
  0.123414457       4.20144573E-02  0.962832034      0.948357224      0.324221462      -2.45459913E-03  0.276108325       2.75671482E-06
  0.123333998       6.35132566E-02  0.962839305      0.948367178      0.324263245      -1.80219754E-03  0.276139826       2.71014869E-06
  0.123253539       8.50120485E-02  0.962825298      0.948347628      0.324388057      -1.22293783E-03  0.276244640       2.48290598E-06
  0.123173088      0.106510840      0.962795436      0.948306143      0.324575603      -7.31264357E-04  0.276404887       2.10478902E-06
  0.123092629      0.128009632      0.962754965      0.948250055      0.324808031      -3.33601696E-04  0.276604623       1.87195837E-06
  0.123012170      0.149508432      0.962708890      0.948186219      0.325067759      -3.06694710E-05  0.276828349       1.51991844E-06
  0.122931719      0.171007231      0.962661505      0.948120832      0.325337857       1.80934527E-04  0.277061135       1.48452818E-06
  0.122851260      0.192506030      0.962616742      0.948058844      0.325602233       3.07714217E-04  0.277289003       1.20326877E-06
  0.122770801      0.214004815      0.962577581      0.948004782      0.325846583       3.58574704E-04  0.277499408       1.13621354E-06
  0.122690350      0.235503614      0.962546408      0.947961867      0.326059133       3.43837833E-04  0.277682155       1.19768083E-06
  0.122609891      0.257002413      0.962525189      0.947932363      0.326231271       2.74233840E-04  0.277829975       9.36910510E-07
  0.122529432      0.278501213      0.962514877      0.947918177      0.326359302       1.59806979E-04  0.277939528       9.92789865E-07
  0.144076750       2.02865545E-02  0.963022232      0.948620141      0.323522091      -3.12000094E-03  0.275506675       3.44961882E-06
  0.143982932       4.18029726E-02  0.963022292      0.948620260      0.323489547      -2.36514839E-03  0.275473475       3.48500907E-06
  0.143889114       6.33193925E-02  0.962999046      0.948588192      0.323599279      -1.65814545E-03  0.275564551       3.45334411E-06
  0.143795297       8.48358124E-02  0.962956607      0.948529482      0.323812604      -1.02838327E-03  0.275746405       3.30433249E-06
  0.143701479      0.106352232      0.962900221      0.948451340      0.324100047      -4.95051790E-04  0.275993407       2.87964940E-06
  0.143607661      0.127868652      0.962835312      0.948361635      0.324436486      -6.82896789E-05  0.276283354       2.67475843E-06
  0.143513858      0.149385065      0.962766945      0.948267043      0.324798793       2.48989090E-04  0.276595920       2.33203173E-06
  0.143420041      0.170901492      0.962700129      0.948174536      0.325165719       4.59541072E-04  0.276912481       1.95764005E-06
  0.143326223      0.192417905      0.962638676      0.948089540      0.325518161       5.70351840E-04  0.277216345       1.64099038E-06
  0.143232405      0.213934317      0.962585986      0.948016942      0.325839609       5.91525866E-04  0.277493179       1.76765025E-06
  0.143138587      0.235450745      0.962544739      0.947959960      0.326117158       5.34876832E-04  0.277731866       1.57766044E-06
  0.143044770      0.256967157      0.962516963      0.947921515      0.326342314       4.12664755E-04  0.277925074       1.44727528E-06
  0.142950952      0.278483570      0.962503493      0.947903097      0.326513022       2.36086795E-04  0.278071076       1.59442425E-06