 title = "grid"
                                   variables = "x","y","rho","P","u","v","M","S"
 zone n=         750  e =        1372  et=quadrilateral, f=fepoint
   0.00000000       0.00000000      0.962936163      0.948498547      0.324109733      -6.18903141E-04  0.276000142       4.22820449E-07
   1.00000000       0.00000000      0.952827156      0.939279795      0.316154629       7.24322628E-04  0.269120187       5.00855409E-03
   1.00000000      0.300000012      0.954438508      0.939283192      0.335082948      -1.39045485E-04  0.285472333       2.64660083E-03
   0.00000000      0.300000012      0.963065028      0.948675871      0.323409975       2.00504292E-06  0.275396407       2.98023224E-08
   1.00000000       2.14285720E-02  0.952955782      0.939385474      0.316766530       5.33482467E-04  0.269643754       4.93214838E-03
   1.00000000       4.28571440E-02  0.953081667      0.939413786      0.318060517       1.67545324E-04  0.270758688       4.77736071E-03
   1.00000000       6.42857179E-02  0.953206480      0.939391077      0.319766223      -2.84947164E-04  0.272231907       4.56986018E-03
   1.00000000       8.57142881E-02  0.953340352      0.939346611      0.321750134      -7.35238835E-04  0.273947209       4.32586111E-03
   1.00000000      0.107142858      0.953483641      0.939295888      0.323894292      -1.12651731E-03  0.275801927       4.06143069E-03
   1.00000000      0.128571436      0.953633070      0.939247906      0.326082885      -1.42208626E-03  0.277695388       3.79103795E-03
   1.00000000      0.150000006      0.953783512      0.939208925      0.328204572      -1.60021952E-03  0.279530734       3.52869555E-03
   1.00000000      0.171428576      0.953929424      0.939182699      0.330157697      -1.65160210E-03  0.281219810       3.28654982E-03
   1.00000000      0.192857146      0.954065025      0.939171135      0.331855267      -1.57735171E-03  0.282687277       3.07524763E-03
   1.00000000      0.214285716      0.954185009      0.939174592      0.333229750      -1.38721603E-03  0.283874691       2.90286727E-03
   1.00000000      0.235714287      0.954284966      0.939192116      0.334236622      -1.09804969E-03  0.284743726       2.77492590E-03
   1.00000000      0.257142872      0.954362333      0.939221621      0.334856629      -7.32694229E-04  0.285278171       2.69283168E-03
   1.00000000      0.278571427      0.954417288      0.939260900      0.335100085      -3.21460568E-04  0.285487235       2.65405700E-03
  0.979591846      0.300000012      0.954426587      0.939262509      0.335274369      -1.93068510E-04  0.285636812       2.64209695E-03
  0.959183693      0.300000012      0.954417646      0.939229310      0.335716575      -2.18196728E-04  0.286017269       2.61985883E-03
  0.938775539      0.300000012      0.954425633      0.939203560      0.336186737      -2.33494633E-04  0.286422968       2.58071162E-03
  0.918367326      0.300000012      0.954441547      0.939176798      0.336694360      -2.53930542E-04  0.286861956       2.52893008E-03
  0.897959173      0.300000012      0.954458654      0.939142942      0.337254405      -2.81957182E-04  0.287346870       2.46778689E-03
  0.877551019      0.300000012      0.954472303      0.939098001      0.337882489      -3.17531783E-04  0.287890971       2.39991583E-03
  0.857142866      0.300000012      0.954479158      0.939038217      0.338593215      -3.60229838E-04  0.288506806       2.32614577E-03
  0.836734712      0.300000012      0.954476535      0.938960969      0.339400291      -4.09636530E-04  0.289206028       2.24776752E-03
  0.816326559      0.300000012      0.954462767      0.938863993      0.340316415      -4.65145829E-04  0.289999604       2.16463767E-03
  0.795918345      0.300000012      0.954436541      0.938745916      0.341352761      -5.25838463E-04  0.290897101       2.07733922E-03
  0.775510192      0.300000012      0.954397380      0.938605607      0.342517942      -5.90220443E-04  0.291905969       1.98533945E-03
  0.755102038      0.300000012      0.954345644      0.938444257      0.343816727      -6.56078220E-04  0.293030202       1.88931823E-03
  0.734693885      0.300000012      0.954283178      0.938264191      0.345247805      -7.20008393E-04  0.294268608       1.78904459E-03
  0.714285731      0.300000012      0.954213619      0.938070357      0.346801549      -7.77204055E-04  0.295612782       1.68445148E-03
  0.693877578      0.300000012      0.954142869      0.937871397      0.348456413      -8.21420574E-04  0.297043979       1.57617778E-03
  0.673469365      0.300000012      0.954079628      0.937679350      0.350176185      -8.44839378E-04  0.298530698       1.46418065E-03
  0.653061211      0.300000012      0.954035461      0.937511086      0.351907074      -8.38273554E-04  0.300026238       1.34949945E-03
  0.632653058      0.300000012      0.954025269      0.937387764      0.353575408      -7.92064413E-04  0.301466763       1.23295747E-03
  0.612244904      0.300000012      0.954066753      0.937334478      0.355087847      -6.97054784E-04  0.302771300       1.11521967E-03
  0.591836751      0.300000012      0.954180658      0.937381029      0.356333345      -5.45918185E-04  0.303843647       9.97755677E-04
  0.571428597      0.300000012      0.954388142      0.937556982      0.357188642      -3.35473829E-04  0.304577291       8.81060958E-04
  0.551020384      0.300000012      0.954706669      0.937887490      0.357526869      -7.14395719E-05  0.304862678       7.66323879E-04
  0.530612230      0.300000012      0.955143988      0.938384831      0.357236505       2.28175413E-04  0.304604173       6.55261800E-04
  0.510204077      0.300000012      0.955690622      0.939037621      0.356250882       5.33686543E-04  0.303745329       5.49679622E-04
  0.489795923      0.300000012      0.956319153      0.939812005      0.354587495       8.14198691E-04  0.302302301       4.53565270E-04
  0.469387770      0.300000012      0.956998408      0.940667868      0.352355093       1.05199183E-03  0.300369561       3.69813293E-04
  0.448979586      0.300000012      0.957702935      0.941571176      0.349712670       1.24016579E-03  0.298084140       2.99366191E-04
  0.428571433      0.300000012      0.958411038      0.942490697      0.346818447       1.37148635E-03  0.295582652       2.40750611E-04
  0.408163279      0.300000012      0.959099293      0.943392873      0.343813300       1.43410231E-03  0.292986721       1.92506239E-04
  0.387755096      0.300000012      0.959747553      0.944247186      0.340829521       1.42606848E-03  0.290410727       1.51678920E-04
  0.367346942      0.300000012      0.960340500      0.945031583      0.337983042       1.35741301E-03  0.287954509       1.17372721E-04
  0.346938789      0.300000012      0.960867882      0.945731461      0.335363567       1.24346837E-03  0.285695076       8.91014934E-05
  0.326530606      0.300000012      0.961325407      0.946339905      0.333029538       1.10184925E-03  0.283682644       6.57346100E-05
  0.306122452      0.300000012      0.961713374      0.946857512      0.331008464       9.48820729E-04  0.281940460       4.77284193E-05
  0.285714298      0.300000012      0.962035716      0.947288573      0.329301596       7.96931854E-04  0.280469447       3.36430967E-05
  0.265306115      0.300000012      0.962298572      0.947640955      0.327891916       6.54688396E-04  0.279254764       2.30893493E-05
  0.244897962      0.300000012      0.962508738      0.947923720      0.326751024       5.26956515E-04  0.278271765       1.57691538E-05
  0.224489793      0.300000012      0.962673843      0.948146164      0.325845361       4.15829825E-04  0.277491599       1.02855265E-05
  0.204081640      0.300000012      0.962800682      0.948317766      0.325140536       3.21586558E-04  0.276884466       6.77630305E-06
  0.183673471      0.300000012      0.962895870      0.948446572      0.324603468       2.43332819E-04  0.276421905       4.21144068E-06
  0.163265303      0.300000012      0.962965190      0.948540926      0.324203759       1.79606679E-04  0.276077688       2.88337469E-06
  0.142857149      0.300000012      0.963013649      0.948606908      0.323914617       1.28721978E-04  0.275828809       1.99861825E-06
  0.122448981      0.300000012      0.963045657      0.948650420      0.323712558       8.89459989E-05  0.275655031       1.35786831E-06
  0.102040820      0.300000012      0.963064969      0.948676646      0.323577702       5.86751485E-05  0.275539130       8.86619091E-07
   8.16326514E-02  0.300000012      0.963074684      0.948689699      0.323492944       3.63869804E-05  0.275466412       5.51342964E-07
   6.12244904E-02  0.300000012      0.963077247      0.948693097      0.323444337       2.06408567E-05  0.275424927       3.89292836E-07
   4.08163257E-02  0.300000012      0.963074923      0.948689699      0.323420376       1.02009226E-05  0.275404692       2.12341547E-07
   2.04081628E-02  0.300000012      0.963069618      0.948682249      0.323411733       4.16014882E-06  0.275397629       5.02914190E-08
   0.00000000      0.278571427      0.963064849      0.948675692      0.323401570       3.20992581E-06  0.275389254       1.04308128E-07
   0.00000000      0.257142872      0.963065922      0.948677123      0.323383838      -9.05624233E-07  0.275374085       7.45058060E-09
   0.00000000      0.235714287      0.963067830      0.948679864      0.323361099      -1.49087064E-05  0.275354624       1.24797225E-07
   0.00000000      0.214285716      0.963069856      0.948682725      0.323338389      -4.13687703E-05  0.275335133       1.88127160E-07
   0.00000000      0.192857146      0.963070691      0.948683858      0.323321909      -8.23423252E-05  0.275321066       2.19792128E-07
   0.00000000      0.171428576      0.963069141      0.948681653      0.323319048      -1.39305397E-04  0.275318742       1.32247806E-07
   0.00000000      0.150000006      0.963063478      0.948673964      0.323337883      -2.12837112E-04  0.275335133       2.38418579E-07
   0.00000000      0.128571436      0.963052213      0.948658526      0.323386401      -3.02413246E-04  0.275377154       3.12924385E-07
   0.00000000      0.107142858      0.963034093      0.948633432      0.323471725      -4.05762403E-04  0.275450945       2.19792128E-07
   0.00000000       8.57142881E-02  0.963008702      0.948598504      0.323598117      -5.17501554E-04  0.275560170       2.90572643E-07
   0.00000000       6.42857179E-02  0.962977409      0.948555410      0.323762804      -6.26749126E-04  0.275702357       4.19095159E-07
   0.00000000       4.28571440E-02  0.962945402      0.948511422      0.323947042      -7.10102962E-04  0.275861174       5.01051545E-07
   0.00000000       2.14285720E-02  0.962927163      0.948486269      0.324090391      -7.13906542E-04  0.275984287       5.15952706E-07
   2.05965936E-02  -4.13848684E-05  0.962880790      0.948422253      0.324116856      -9.61242768E-04  0.276010066       4.91738319E-07
   4.11929786E-02  -1.51938104E-04  0.962800503      0.948312044      0.323975444      -1.74240454E-03  0.275896937       9.72300768E-07
   6.17889874E-02  -3.14505887E-04  0.962820470      0.948339999      0.323608220      -2.43166392E-03  0.275586843       1.46590173E-06
   8.23846832E-02  -5.15037973E-04  0.962917507      0.948474050      0.323092997      -2.95318943E-03  0.275146157       1.69128180E-06
  0.102980107      -7.41501746E-04  0.963067234      0.948680997      0.322479576      -3.30267381E-03  0.274618149       2.18674541E-06
  0.123575367      -9.83132166E-04  0.963254392      0.948939562      0.321794033      -3.48821981E-03  0.274025321       2.62446702E-06
  0.144170567      -1.22986489E-03  0.963470399      0.949237943      0.321048558      -3.51610850E-03  0.273378521       3.16090882E-06
  0.164765805      -1.47186557E-03  0.963711262      0.949570954      0.320246309      -3.38743092E-03  0.272680551       3.95812094E-06
  0.185361236      -1.69908674E-03  0.963976085      0.949937105      0.319384158      -3.09707131E-03  0.271928966       4.80376184E-06
  0.205956906      -1.90079887E-03  0.964266300      0.950338781      0.318453491      -2.63233203E-03  0.271116585       6.15417957E-06
  0.226552933      -2.06502923E-03  0.964585304      0.950780988      0.317440122      -1.97123061E-03  0.270231694       8.27759504E-06
  0.247149289      -2.17781961E-03  0.964938462      0.951271296      0.316322953      -1.07914268E-03  0.269256890       1.13137066E-05
  0.267745912      -2.22215871E-03  0.965333164      0.951821148      0.315071970       9.74484137E-05  0.268167824       1.66520476E-05
  0.288342476      -2.17632344E-03  0.965779126      0.952446043      0.313642532       1.64239644E-03  0.266928911       2.63601542E-05
  0.308938444      -2.01110821E-03  0.966288388      0.953165948      0.311965436       3.69289611E-03  0.265486211       4.38578427E-05
  0.329532504      -1.68479502E-03  0.966873646      0.954006016      0.309920460       6.49142545E-03  0.263749003       7.71768391E-05
  0.350121617      -1.13302853E-03  0.967534602      0.954981148      0.307249904       1.05327033E-02  0.261528283       1.42049044E-04
  0.370698810      -2.45296280E-04  0.968447864      0.956365049      0.303478301       1.72712225E-02  0.258518755       2.69249082E-04
  0.391233593       1.31973682E-03  0.970076799      0.958846033      0.298617154       2.94597726E-02  0.255083591       5.07287681E-04
  0.411623418       4.19568829E-03  0.972328424      0.962349713      0.294106364       4.90201078E-02  0.253297329       9.08977352E-04
  0.431661844       8.91561527E-03  0.974736750      0.966299295      0.292846471       7.62077495E-02  0.256857693       1.54130813E-03
  0.451005518       1.59534402E-02  0.975330830      0.967994750      0.303202182      0.105075486      0.272229970       2.44136341E-03
  0.469851911       2.42583062E-02  0.965137661      0.955071270      0.336025774      0.107777454      0.299811631       3.70907038E-03
  0.489723206       2.94313785E-02  0.945101202      0.929111242      0.372205257       6.24047928E-02  0.321694553       5.52176870E-03
  0.510276794       2.94313785E-02  0.926419318      0.905551553      0.381221801      -1.15465252E-02  0.326031864       7.78856501E-03
  0.530148089       2.42583044E-02  0.914243042      0.890451789      0.357825756      -7.79388919E-02  0.313616037       9.49602574E-03
  0.548994482       1.59534402E-02  0.914553821      0.891206622      0.320815384     -0.104066648      0.288756400       9.86759365E-03
  0.568338156       8.91561527E-03  0.927539289      0.908666074      0.294269234      -8.88881385E-02  0.262485623       9.53059830E-03
  0.588376582       4.19568783E-03  0.940369666      0.925963700      0.281219840      -6.18354566E-02  0.245237634       9.15486738E-03
  0.608766437       1.31973659E-03  0.948240280      0.936445177      0.277546942      -3.90493013E-02  0.238367423       8.74196924E-03
  0.629301190      -2.45296367E-04  0.952036917      0.941301584      0.279181689      -2.35661976E-02  0.238137171       8.32033530E-03
  0.649878383      -1.13302865E-03  0.953287780      0.942661107      0.282866418      -1.45656178E-02  0.240727991       7.92540610E-03
  0.670467496      -1.68479513E-03  0.953553677      0.942697823      0.286672324      -9.35714878E-03  0.243803144       7.57392310E-03
  0.691061556      -2.01110821E-03  0.953592539      0.942459702      0.290095747      -5.95840532E-03  0.246671498       7.26418756E-03
  0.711657524      -2.17632344E-03  0.953570366      0.942170441      0.293157339      -3.54680000E-03  0.249275818       6.98983483E-03
  0.732254088      -2.22215871E-03  0.953529835      0.941883802      0.295923352      -1.74816279E-03  0.251646727       6.74504228E-03
  0.752850711      -2.17781961E-03  0.953481674      0.941610157      0.298448622      -3.70415248E-04  0.253820360       6.52517751E-03
  0.773447096      -2.06502923E-03  0.953427970      0.941348672      0.300773025       6.95204653E-04  0.255825996       6.32629730E-03
  0.794043124      -1.90079887E-03  0.953369439      0.941097796      0.302925110       1.51480862E-03  0.257685453       6.14569709E-03
  0.814638793      -1.69908674E-03  0.953306496      0.940855443      0.304924875       2.13012937E-03  0.259414524       5.98054752E-03
  0.835234165      -1.47186557E-03  0.953239977      0.940620959      0.306786120       2.56784726E-03  0.261024147       5.82902506E-03
  0.855829418      -1.22986489E-03  0.953170955      0.940394461      0.308517426       2.84422678E-03  0.262521267       5.68956695E-03
  0.876424611      -9.83132166E-04  0.953100920      0.940176785      0.310122639       2.96770828E-03  0.263908893       5.56088798E-03
  0.897019863      -7.41501746E-04  0.953032076      0.939969957      0.311600447       2.94026313E-03  0.265185744       5.44204749E-03
  0.917615294      -5.15037973E-04  0.952967465      0.939777136      0.312943190       2.75780889E-03  0.266345263       5.33178635E-03
  0.938211024      -3.14505887E-04  0.952910602      0.939602911      0.314134061       2.41062138E-03  0.267373085       5.22993319E-03
  0.958807051      -1.51938104E-04  0.952864170      0.939451993      0.315138817       1.88582717E-03  0.268240184       5.13752922E-03
  0.979403377      -4.13848684E-05  0.952818394      0.939313710      0.315864205       1.19363575E-03  0.268868059       5.05760126E-03
   2.05831341E-02   2.13901419E-02  0.962886333      0.948430121      0.324024051      -1.10085716E-03  0.275931060       7.32019544E-07
   2.05696747E-02   4.28216718E-02  0.962948263      0.948515475      0.323831350      -9.61821119E-04  0.275763065       6.53788447E-07
   2.05562152E-02   6.42531961E-02  0.962994397      0.948579073      0.323640138      -7.98065332E-04  0.275597185       6.07222319E-07
   2.05427557E-02   8.56847242E-02  0.963028729      0.948626339      0.323485106      -6.34467462E-04  0.275462925       5.81145287E-07
   2.05292962E-02  0.107116252      0.963052928      0.948659539      0.323375076      -4.83102718E-04  0.275367647       3.93018126E-07
   2.05158386E-02  0.128547773      0.963068008      0.948680341      0.323308259      -3.50117480E-04  0.275309712       3.46451998E-07
   2.05023792E-02  0.149979308      0.963076115      0.948691428      0.323277920      -2.38641966E-04  0.275283366       2.47731805E-07
   2.04889197E-02  0.171410829      0.963078916      0.948695242      0.323275715      -1.49567641E-04  0.275281310       2.47731805E-07
   2.04754602E-02  0.192842364      0.963078022      0.948693991      0.323292971      -8.25401366E-05  0.275296003       1.84401870E-07
   2.04620007E-02  0.214273885      0.963075399      0.948690236      0.323321164      -3.60671984E-05  0.275320172       7.07805157E-08
   2.04485413E-02  0.235705420      0.963072300      0.948685765      0.323352724      -7.81529525E-06  0.275347263      -1.62050128E-07
   2.04350818E-02  0.257136941      0.963069737      0.948682368      0.323381573       5.17365288E-06  0.275371939       0.00000000    
   2.04216223E-02  0.278568476      0.963068426      0.948680639      0.323402584       6.41287443E-06  0.275389880       5.02914190E-08
   4.11660746E-02   2.12874860E-02  0.962866783      0.948403656      0.323796570      -1.74655847E-03  0.275740802       1.21816993E-06
   4.11391705E-02   4.27269116E-02  0.962963879      0.948537409      0.323592782      -1.42811041E-03  0.275560379       1.06170774E-06
   4.11122665E-02   6.41663373E-02  0.963024139      0.948620439      0.323413521      -1.13406125E-03  0.275403351       1.03749335E-06
   4.10853624E-02   8.56057554E-02  0.963062286      0.948673010      0.323280036      -8.71735043E-04  0.275286794       9.79751348E-07
   4.10584584E-02  0.107045181      0.963085115      0.948704064      0.323196232      -6.43857638E-04  0.275213718       5.08502126E-07
   4.10315543E-02  0.128484607      0.963096619      0.948719919      0.323157728      -4.51618485E-04  0.275179982       5.17815351E-07
   4.10046503E-02  0.149924025      0.963100195      0.948724806      0.323156297      -2.95092934E-04  0.275178462       4.89875674E-07
   4.09777500E-02  0.171363458      0.963098288      0.948722124      0.323182136      -1.73255205E-04  0.275200486       4.35858965E-07
   4.09508459E-02  0.192802876      0.963093340      0.948715150      0.323225349      -8.41541259E-05  0.275237560       2.40281224E-07
   4.09239419E-02  0.214242309      0.963087142      0.948706448      0.323276639      -2.47679691E-05  0.275281608       9.87201929E-08
   4.08970378E-02  0.235681728      0.963081181      0.948698282      0.323327899       8.69155338E-06  0.275325567       1.52736902E-07
   4.08701338E-02  0.257121146      0.963076651      0.948692083      0.323372334       2.07801131E-05  0.275363654       2.23517418E-07
   4.08432297E-02  0.278560579      0.963074505      0.948689044      0.323404282       1.64543690E-05  0.275391012       6.70552254E-08
   6.17486648E-02   2.11365297E-02  0.962911665      0.948465765      0.323393881      -2.31021037E-03  0.275398314       1.45658851E-06
   6.17083460E-02   4.25875671E-02  0.963013470      0.948606074      0.323214859      -1.85101677E-03  0.275237530       1.33365393E-06
   6.16680235E-02   6.40386045E-02  0.963075638      0.948691666      0.323075891      -1.43797102E-03  0.275113851       1.24610960E-06
   6.16277009E-02   8.54896381E-02  0.963111460      0.948740900      0.322986722      -1.07839704E-03  0.275034726       1.07288361E-06
   6.15873821E-02  0.106940672      0.963129044      0.948765099      0.322948009      -7.72996864E-04  0.275000006       9.53674316E-07
   6.15470596E-02  0.128391713      0.963134110      0.948771894      0.322953969      -5.20652393E-04  0.275004387       7.97212124E-07
   6.15067370E-02  0.149842754      0.963130653      0.948766947      0.322995424      -3.19374114E-04  0.275039732       5.96046448E-07
   6.14664182E-02  0.171293780      0.963121831      0.948754847      0.323061585      -1.66346130E-04  0.275096476       6.98491931E-07
   6.14260957E-02  0.192744821      0.963110626      0.948739171      0.323141575      -5.78102481E-05  0.275165200       4.47034836E-07
   6.13857731E-02  0.214195862      0.963099062      0.948723137      0.323225319       1.07840006E-05  0.275237173       3.44589353E-07
   6.13454543E-02  0.235646889      0.963088989      0.948709249      0.323303789       4.49662002E-05  0.275304556       3.55765224E-07
   6.13051318E-02  0.257097930      0.963081598      0.948698938      0.323369682       5.08352787E-05  0.275361121       2.16066837E-07
   6.12648092E-02  0.278548956      0.963077843      0.948693871      0.323417246       3.47261448E-05  0.275401831       3.16649675E-07
   8.23309720E-02   2.09503211E-02  0.963011980      0.948604643      0.322864771      -2.73469579E-03  0.274944782       2.02283263E-06
   8.22772533E-02   4.24156822E-02  0.963099420      0.948724985      0.322722673      -2.17469293E-03  0.274815172       1.77137554E-06
   8.22235346E-02   6.38810396E-02  0.963151217      0.948796213      0.322639316      -1.66579965E-03  0.274738699       1.55717134E-06
   8.21698159E-02   8.53464007E-02  0.963177204      0.948832095      0.322611362      -1.22129684E-03  0.274711698       1.59256160E-06
   8.21161047E-02  0.106811762      0.963184536      0.948841810      0.322634667      -8.45124479E-04  0.274730176       1.13993883E-06
   8.20623860E-02  0.128277123      0.963179052      0.948834181      0.322701037      -5.37179294E-04  0.274786443       1.13807619E-06
   8.20086673E-02  0.149742484      0.963165462      0.948815107      0.322799951      -2.95180012E-04  0.274871260       7.91624188E-07
   8.19549561E-02  0.171207845      0.963147104      0.948789835      0.322919607      -1.15266252E-04  0.274974078       7.71135092E-07
   8.19012374E-02  0.192673206      0.963127553      0.948762536      0.323047906       7.58452279E-06  0.275084466       4.22820449E-07
   8.18475187E-02  0.214138567      0.963108838      0.948736906      0.323173910       7.95555825E-05  0.275192797       6.38887286E-07
   8.17938000E-02  0.235603914      0.963093281      0.948715448      0.323287696       1.07713779E-04  0.275290608       6.22123480E-07
   8.17400888E-02  0.257069290      0.963082373      0.948700368      0.323381424       9.97893367E-05  0.275371015       6.29574060E-07
   8.16863701E-02  0.278534651      0.963077009      0.948692620      0.323449910       6.33022064E-05  0.275429696       2.51457095E-07
  0.102913015       2.07400341E-02  0.963155091      0.948802292      0.322244912      -3.00691463E-03  0.274410814       2.29664147E-06
  0.102845922       4.22215685E-02  0.963217795      0.948888719      0.322141528      -2.37277220E-03  0.274314702       2.28546560E-06
  0.102778830       6.37031049E-02  0.963250637      0.948933840      0.322119951      -1.78840465E-03  0.274291247       2.07312405E-06
  0.102711737       8.51846412E-02  0.963259757      0.948946118      0.322164446      -1.27329200E-03  0.274326622       1.81049109E-06
  0.102644645      0.106666178      0.963251412      0.948934495      0.322263390      -8.36512889E-04  0.274410129       1.62795186E-06
  0.102577560      0.128147706      0.963231087      0.948906183      0.322404951      -4.80847404E-04  0.274531215       1.36345625E-06
  0.102510467      0.149629250      0.963203609      0.948868215      0.322575927      -2.05091797E-04  0.274678141       1.27404928E-06
  0.102443375      0.171110779      0.963172913      0.948825598      0.322762549      -5.35284198E-06  0.274838805       9.44361091E-07
  0.102376282      0.192592323      0.963142335      0.948783457      0.322951466       1.24277358E-04  0.275001436       1.00582838E-06
  0.102309190      0.214073852      0.963114917      0.948745370      0.323130131       1.91297222E-04  0.275155216       7.13393092E-07
  0.102242097      0.235555395      0.963092566      0.948714495      0.323287994       2.04307929E-04  0.275290906       6.87316060E-07
  0.102175005      0.257036924      0.963077128      0.948693216      0.323417068       1.72575412E-04  0.275401682       6.79865479E-07
  0.102107912      0.278518468      0.963069618      0.948682725      0.323512733       1.04658211E-04  0.275483578       5.27128577E-07
  0.123494908       2.05156635E-02  0.963331044      0.949045420      0.321555197      -3.12576117E-03  0.273814410       2.81631947E-06
  0.123414457       4.20144573E-02  0.963364303      0.949091256      0.321489215      -2.43205624E-03  0.273751259       2.80700624E-06
  0.123333998       6.35132566E-02  0.963371575      0.949101269      0.321532398      -1.78611034E-03  0.273784012       2.73995101E-06
  0.123253539       8.50120485E-02  0.963357985      0.949082315      0.321657062      -1.21252984E-03  0.273888648       2.51270831E-06
  0.123173088      0.106510840      0.963328779      0.949041665      0.321843445      -7.25547550E-04  0.274047822       2.11037695E-06
  0.123092629      0.128009632      0.963289082      0.948986769      0.322073907      -3.31442192E-04  0.274245828       1.95577741E-06
  0.123012170      0.149508432      0.963243783      0.948924124      0.322331369      -3.09445895E-05  0.274467498       1.84774399E-06
  0.122931719      0.171007231      0.963197410      0.948859811      0.322599024       1.79239447E-04  0.274698138       1.43051147E-06
  0.122851260      0.192506030      0.963153362      0.948798895      0.322861284       3.05611728E-04  0.274924099       1.27218664E-06
  0.122770801      0.214004815      0.963114798      0.948745549      0.323104113       3.56791454E-04  0.275133133       1.06170774E-06
  0.122690350      0.235503614      0.963084221      0.948703349      0.323315829       3.42966407E-04  0.275315136       1.06543303E-06
  0.122609891      0.257002413      0.963063240      0.948674500      0.323488593       2.74627266E-04  0.275463402       1.11572444E-06
  0.122529432      0.278501213      0.963053167      0.948660493      0.323618710       1.61615157E-04  0.275574744       1.00582838E-06
  0.144076750       2.02865545E-02  0.963534057      0.949326098      0.320805609      -3.09078465E-03  0.273164272       3.53530049E-06
  0.143982932       4.18029726E-02  0.963534534      0.949326634      0.320776165      -2.34333309E-03  0.273133814       3.39187682E-06
  0.143889114       6.33193925E-02  0.963511944      0.949295461      0.320886523      -1.64322765E-03  0.273225337       3.40119004E-06
  0.143795297       8.48358124E-02  0.963470280      0.949237943      0.321098775      -1.01965771E-03  0.273406237       3.33040953E-06
  0.143701479      0.106352232      0.963414967      0.949161291      0.321383953      -4.91354673E-04  0.273651183       2.93739140E-06
  0.143607661      0.127868652      0.963351250      0.949072957      0.321717381      -6.83453254E-05  0.273938477       2.47359276E-06
  0.143513858      0.149385065      0.963284075      0.948980272      0.322076350       2.46394338E-04  0.274248034       2.40653753E-06
  0.143420041      0.170901492      0.963218272      0.948889315      0.322439998       4.55597095E-04  0.274561644       2.20537186E-06
  0.143326223      0.192417905      0.963157833      0.948805630      0.322789490       5.66128700E-04  0.274862915       1.82352960E-06
  0.143232405      0.213934317      0.963105977      0.948734045      0.323108733       5.87922928E-04  0.275137752       1.76019967E-06
  0.143138587      0.235450745      0.963065386      0.948677838      0.323385209       5.32544800E-04  0.275375485       1.57207251E-06
  0.143044770      0.256967157      0.963038027      0.948639989      0.323610693       4.12030000E-04  0.275568932       1.43609941E-06
  0.142950952      0.278483570      0.963024855      0.948621988      0.323783487       2.37400061E-04  0.275716633       1.57207251E-06