 title = "grid"
                                   variables = "x","y","rho","P","u","v","M","S"
 zone n=         750  e =        1372  et=quadrilateral, f=fepoint
   0.00000000       0.00000000      0.963102937      0.948728383      0.323361516      -6.16314006E-04  0.275353432       2.51457095E-07
   1.00000000       0.00000000      0.952862620      0.939290643      0.315244883       7.23302714E-04  0.268349200       4.96804528E-03
   1.00000000      0.300000012      0.954454303      0.939291537      0.334043831      -1.36742034E-04  0.284588158       2.63236277E-03
   0.00000000      0.300000012      0.963227272      0.948899567      0.322676569       3.47232208E-06  0.274762630      -8.38190317E-08
   1.00000000       2.14285720E-02  0.952990055      0.939395189      0.315853834       5.32342936E-04  0.268870264       4.89211828E-03
   1.00000000       4.28571440E-02  0.953114808      0.939423621      0.317140281       1.66863945E-04  0.269978583       4.73914109E-03
   1.00000000       6.42857179E-02  0.953238249      0.939400911      0.318835318      -2.84580368E-04  0.271442473       4.53366712E-03
   1.00000000       8.57142881E-02  0.953370512      0.939356863      0.320806473      -7.33726192E-04  0.273146600       4.29252908E-03
   1.00000000      0.107142858      0.953512013      0.939306200      0.322936356      -1.12379866E-03  0.274988830       4.03078273E-03
   1.00000000      0.128571436      0.953659534      0.939258397      0.325110227      -1.41830626E-03  0.276869327       3.76335531E-03
   1.00000000      0.150000006      0.953808010      0.939219415      0.327217489      -1.59558898E-03  0.278692096       3.50389071E-03
   1.00000000      0.171428576      0.953952014      0.939193308      0.329156876      -1.64639053E-03  0.280369073       3.26474383E-03
   1.00000000      0.192857146      0.954085886      0.939181864      0.330842108      -1.57182303E-03  0.281825691       3.05609405E-03
   1.00000000      0.214285716      0.954204381      0.939185202      0.332206100      -1.38177362E-03  0.283003896       2.88579985E-03
   1.00000000      0.235714287      0.954303265      0.939202428      0.333204776      -1.09304767E-03  0.283865839       2.75900401E-03
   1.00000000      0.257142872      0.954379797      0.939231634      0.333819449      -7.28557410E-04  0.284395635       2.67788209E-03
   1.00000000      0.278571427      0.954434216      0.939270735      0.334060729      -3.18599137E-04  0.284602851       2.63969600E-03
  0.979591846      0.300000012      0.954446316      0.939276278      0.334233284      -1.90628198E-04  0.284750700       2.62783468E-03
  0.959183693      0.300000012      0.954445541      0.939255059      0.334671646      -2.15774984E-04  0.285127282       2.60634720E-03
  0.938775539      0.300000012      0.954461575      0.939240873      0.335138351      -2.31160317E-04  0.285529464       2.56770104E-03
  0.918367326      0.300000012      0.954485178      0.939225435      0.335642844      -2.51639402E-04  0.285965204       2.51669809E-03
  0.897959173      0.300000012      0.954509735      0.939202607      0.336200267      -2.79692147E-04  0.286447287       2.45636702E-03
  0.877551019      0.300000012      0.954530716      0.939168513      0.336826056      -3.15311743E-04  0.286988884       2.38930248E-03
  0.857142866      0.300000012      0.954544544      0.939119160      0.337534994      -3.58088117E-04  0.287602574       2.31643580E-03
  0.836734712      0.300000012      0.954548836      0.939052224      0.338340580      -4.07499523E-04  0.288299978       2.23883428E-03
  0.816326559      0.300000012      0.954541504      0.938965142      0.339255691      -4.63028555E-04  0.289092094       2.15691887E-03
  0.795918345      0.300000012      0.954521477      0.938856423      0.340291440      -5.23763068E-04  0.289988518       2.07046978E-03
  0.775510192      0.300000012      0.954488277      0.938725531      0.341456592      -5.88168856E-04  0.290996730       1.97971426E-03
  0.755102038      0.300000012      0.954442263      0.938572824      0.342755854      -6.54086296E-04  0.292120814       1.88458897E-03
  0.734693885      0.300000012      0.954385281      0.938400984      0.344188124      -7.18070427E-04  0.293359697       1.78504921E-03
  0.714285731      0.300000012      0.954320908      0.938215077      0.345743567      -7.75386230E-04  0.294704795       1.68131478E-03
  0.693877578      0.300000012      0.954255044      0.938023329      0.347400963      -8.19846464E-04  0.296137661       1.57352537E-03
  0.673469365      0.300000012      0.954196036      0.937837839      0.349124312      -8.43514863E-04  0.297626972       1.46237761E-03
  0.653061211      0.300000012      0.954155624      0.937675118      0.350859940      -8.37312487E-04  0.299126178       1.34813040E-03
  0.632653058      0.300000012      0.954148591      0.937556505      0.352534324      -7.91528786E-04  0.300571501       1.23195536E-03
  0.612244904      0.300000012      0.954192638      0.937506974      0.354054362      -6.97023934E-04  0.301882237       1.11448579E-03
  0.591836751      0.300000012      0.954308212      0.937555850      0.355309457      -5.46559691E-04  0.302962571       9.97060910E-04
  0.571428597      0.300000012      0.954516172      0.937732816      0.356176317      -3.36783502E-04  0.303705961       8.80714506E-04
  0.551020384      0.300000012      0.954834282      0.938063085      0.356528074      -7.34587593E-05  0.304002881       7.66355544E-04
  0.530612230      0.300000012      0.955270350      0.938558877      0.356253207       2.25548196E-04  0.303757668       6.55567273E-04
  0.510204077      0.300000012      0.955814898      0.939209223      0.355284929       5.30599675E-04  0.302913755       5.50389290E-04
  0.489795923      0.300000012      0.956440747      0.939980090      0.353639990       8.10792029E-04  0.301486731       4.54461202E-04
  0.469387770      0.300000012      0.957116902      0.940831423      0.351426661       1.04846607E-03  0.299570650       3.70308757E-04
  0.448979586      0.300000012      0.957817972      0.941729665      0.348803490       1.23656122E-03  0.297302067       2.99515203E-04
  0.428571433      0.300000012      0.958522320      0.942644179      0.345928729       1.36786292E-03  0.294817477       2.41039321E-04
  0.408163279      0.300000012      0.959206879      0.943541169      0.342942595       1.43055012E-03  0.292238146       1.92666426E-04
  0.387755096      0.300000012      0.959851682      0.944390833      0.339977294       1.42277859E-03  0.289678246       1.51896849E-04
  0.367346942      0.300000012      0.960441351      0.945170999      0.337148547       1.35444244E-03  0.287237406       1.17894262E-04
  0.346938789      0.300000012      0.960966289      0.945867479      0.334545761       1.24082144E-03  0.284992516       8.94814730E-05
  0.326530606      0.300000012      0.961421728      0.946473181      0.332227409       1.09962828E-03  0.282993615       6.63679093E-05
  0.306122452      0.300000012      0.961808383      0.946988821      0.330220699       9.46956512E-04  0.281263858       4.80283052E-05
  0.285714298      0.300000012      0.962130249      0.947418928      0.328527033       7.95421307E-04  0.279804230       3.36878002E-05
  0.265306115      0.300000012      0.962392986      0.947771192      0.327129215       6.53543684E-04  0.278599709       2.31973827E-05
  0.244897962      0.300000012      0.962604046      0.948055089      0.325998843       5.26151503E-04  0.277625680       1.56667084E-05
  0.224489793      0.300000012      0.962770641      0.948279917      0.325102448       4.15393763E-04  0.276853293       1.05407089E-05
  0.204081640      0.300000012      0.962899923      0.948454797      0.324405313       3.21496249E-04  0.276252627       6.92717731E-06
  0.183673471      0.300000012      0.962998390      0.948588014      0.323874444       2.43585382E-04  0.275795221       4.29153442E-06
  0.163265303      0.300000012      0.963071823      0.948687851      0.323479474       1.80125615E-04  0.275454849       2.77161598E-06
  0.142857149      0.300000012      0.963125229      0.948760569      0.323193640       1.29550826E-04  0.275208533       1.76019967E-06
  0.122448981      0.300000012      0.963163078      0.948811948      0.322993457       9.00646046E-05  0.275036007       8.53091478E-07
  0.102040820      0.300000012      0.963188827      0.948847055      0.322858959       6.00944441E-05  0.274920076       4.54485416E-07
   8.16326514E-02  0.300000012      0.963205576      0.948870122      0.322773129       3.79949452E-05  0.274846047       4.69386578E-07
   6.12244904E-02  0.300000012      0.963216007      0.948884547      0.322722077       2.24132491E-05  0.274801940       4.89875674E-07
   4.08163257E-02  0.300000012      0.963222325      0.948893011      0.322694391       1.21121138E-05  0.274778038       2.25380063E-07
   2.04081628E-02  0.300000012      0.963225842      0.948897600      0.322681338       5.89952606E-06  0.274766773      -1.00582838E-07
   0.00000000      0.278571427      0.963227570      0.948900044      0.322667211       4.67726659E-06  0.274754643      -2.98023224E-08
   0.00000000      0.257142872      0.963228881      0.948901772      0.322648555       4.95941890E-07  0.274738699      -8.00937414E-08
   0.00000000      0.235714287      0.963230848      0.948904634      0.322625160      -1.35960054E-05  0.274718642       6.89178705E-08
   0.00000000      0.214285716      0.963232934      0.948907614      0.322601795      -4.00948338E-05  0.274698615       1.67638063E-07
   0.00000000      0.192857146      0.963234007      0.948909044      0.322584778      -8.10514975E-05  0.274684072       1.56462193E-07
   0.00000000      0.171428576      0.963232517      0.948907137      0.322581291      -1.37955605E-04  0.274681181       2.83122063E-07
   0.00000000      0.150000006      0.963227093      0.948899508      0.322599322      -2.11423045E-04  0.274696887       1.11758709E-07
   0.00000000      0.128571436      0.963216126      0.948884249      0.322647035      -3.00871499E-04  0.274738252       2.04890966E-08
   0.00000000      0.107142858      0.963198125      0.948859751      0.322731405      -4.04025428E-04  0.274811178       3.52039933E-07
   0.00000000       8.57142881E-02  0.963172972      0.948825121      0.322856486      -5.15516731E-04  0.274919212       3.81842256E-07
   0.00000000       6.42857179E-02  0.963142097      0.948782563      0.323019683      -6.24432636E-04  0.275060087       4.50760126E-07
   0.00000000       4.28571440E-02  0.963110626      0.948739290      0.323201984      -7.07548519E-04  0.275217265       5.66244125E-07
   0.00000000       2.14285720E-02  0.963092804      0.948714674      0.323343366      -7.11143657E-04  0.275338680       5.25265932E-07
   2.05965936E-02  -4.13848684E-05  0.963043690      0.948646843      0.323370636      -9.57611308E-04  0.275365263       4.09781933E-07
   4.11929786E-02  -1.51938104E-04  0.962953746      0.948523343      0.323234290      -1.73670659E-03  0.275257021       9.79751348E-07
   6.17889874E-02  -3.14505887E-04  0.962963402      0.948537111      0.322872698      -2.42431602E-03  0.274952263       1.44354999E-06
   8.23846832E-02  -5.15037973E-04  0.963050663      0.948657751      0.322362393      -2.94476049E-03  0.274516344       1.73971057E-06
  0.102980107      -7.41501746E-04  0.963191450      0.948852122      0.321752816      -3.29361134E-03  0.273992121       1.96136534E-06
  0.123575367      -9.83132166E-04  0.963370323      0.949099183      0.321070015      -3.47887562E-03  0.273402244       2.34879553E-06
  0.144170567      -1.22986489E-03  0.963578701      0.949387193      0.320326209      -3.50686768E-03  0.272757292       3.03238630E-06
  0.164765805      -1.47186557E-03  0.963812888      0.949710965      0.319524586      -3.37864389E-03  0.272060305       3.75509262E-06
  0.185361236      -1.69908674E-03  0.964071751      0.950068891      0.318661958      -3.08905006E-03  0.271308720       4.61004674E-06
  0.205956906      -1.90079887E-03  0.964356601      0.950463116      0.317729920      -2.62549962E-03  0.270495534       5.89340925E-06
  0.226552933      -2.06502923E-03  0.964670837      0.950898886      0.316714287      -1.96604943E-03  0.269609034       8.12113285E-06
  0.247149289      -2.17781961E-03  0.965019763      0.951383531      0.315594226      -1.07605581E-03  0.268632054       1.13546848E-05
  0.267745912      -2.22215871E-03  0.965410888      0.951928437      0.314339608       9.77806194E-05  0.267540246       1.66743994E-05
  0.288342476      -2.17632344E-03  0.965853512      0.952548623      0.312906206       1.63913856E-03  0.266298175       2.61813402E-05
  0.308938444      -2.01110821E-03  0.966359615      0.953264296      0.311224967       3.68480175E-03  0.264852196       4.38708812E-05
  0.329532504      -1.68479502E-03  0.966941535      0.954099953      0.309175819       6.47682976E-03  0.263111562       7.72885978E-05
  0.350121617      -1.13302853E-03  0.967598855      0.955070138      0.306501687       1.05087617E-02  0.260887951       1.42231584E-04
  0.370698810      -2.45296280E-04  0.968507588      0.956447840      0.302727640       1.72316395E-02  0.257876277       2.69522890E-04
  0.391233593       1.31973682E-03  0.970130444      0.958919942      0.297864854       2.93910857E-02  0.254438668       5.06935641E-04
  0.411623418       4.19568829E-03  0.972375691      0.962413728      0.293349385       4.89023477E-02  0.252644300       9.07409936E-04
  0.431661844       8.91561527E-03  0.974782050      0.966357946      0.292073995       7.60175213E-02  0.256180614       1.53698027E-03
  0.451005518       1.59534402E-02  0.975389481      0.968067944      0.302382141      0.104800761      0.271494210       2.43281014E-03
  0.469851911       2.42583062E-02  0.965252876      0.955217421      0.335096449      0.107473537      0.298975945       3.69491987E-03
  0.489723206       2.94313785E-02  0.945307195      0.929373324      0.371151537       6.21970817E-02  0.320769161       5.49867377E-03
  0.510276794       2.94313785E-02  0.926702499      0.905906916      0.380124718      -1.15616797E-02  0.325080782       7.75301456E-03
  0.530148089       2.42583044E-02  0.914564192      0.890848041      0.356789380      -7.77579993E-02  0.312701225       9.44922864E-03
  0.548994482       1.59534402E-02  0.914860249      0.891579688      0.319888383     -0.103785940      0.287915319       9.81707126E-03
  0.568338156       8.91561527E-03  0.927788019      0.908962011      0.293428719      -8.86292681E-02  0.261727124       9.48083960E-03
  0.588376582       4.19568783E-03  0.940561116      0.926182568      0.280426055      -6.16480745E-02  0.244539052       9.10617784E-03
  0.608766437       1.31973659E-03  0.948394477      0.936613858      0.276767552      -3.89285386E-02  0.237694621       8.69442895E-03
  0.629301190      -2.45296367E-04  0.952171624      0.941444695      0.278396785      -2.34926976E-02  0.237465888       8.27429816E-03
  0.649878383      -1.13302865E-03  0.953413963      0.942793906      0.282067418      -1.45204924E-02  0.240046829       7.88095780E-03
  0.670467496      -1.68479513E-03  0.953676164      0.942826331      0.285857677      -9.32841934E-03  0.243109301       7.53037445E-03
  0.691061556      -2.01110821E-03  0.953712225      0.942585051      0.289266646      -5.94012672E-03  0.245965555       7.22146034E-03
  0.711657524      -2.17632344E-03  0.953687370      0.942292452      0.292315274      -3.53578432E-03  0.248558968       6.94749691E-03
  0.732254088      -2.22215871E-03  0.953643501      0.942001879      0.295069903      -1.74244214E-03  0.250920177       6.70351833E-03
  0.752850711      -2.17781961E-03  0.953591585      0.941723287      0.297585130      -3.68705223E-04  0.253085405       6.48396462E-03
  0.773447096      -2.06502923E-03  0.953533888      0.941456556      0.299900740       6.93864538E-04  0.255083650       6.28536008E-03
  0.794043124      -1.90079887E-03  0.953470886      0.941199362      0.302044958       1.51108764E-03  0.256936580       6.10464066E-03
  0.814638793      -1.69908674E-03  0.953402996      0.940950036      0.304037899       2.12473236E-03  0.258660018       5.93940541E-03
  0.835234165      -1.47186557E-03  0.953330994      0.940708220      0.305893213       2.56126560E-03  0.260264814       5.78811578E-03
  0.855829418      -1.22986489E-03  0.953256130      0.940473616      0.307619303       2.83691124E-03  0.261757731       5.64862601E-03
  0.876424611      -9.83132166E-04  0.953179836      0.940247297      0.309220165       2.96012266E-03  0.263141930       5.51997684E-03
  0.897019863      -7.41501746E-04  0.953104496      0.940031350      0.310694337       2.93282443E-03  0.264416009       5.40094636E-03
  0.917615294      -5.15037973E-04  0.953032792      0.939828992      0.312034309       2.75096670E-03  0.265573502       5.29101305E-03
  0.938211024      -3.14505887E-04  0.952968419      0.939644635      0.313223302       2.40484253E-03  0.266600072       5.18940575E-03
  0.958807051      -1.51938104E-04  0.952914417      0.939483225      0.314227104       1.88155787E-03  0.267466784       5.09697944E-03
  0.979403377      -4.13848684E-05  0.952860177      0.939333498      0.314953089       1.19136134E-03  0.268095553       5.01726009E-03
   2.05831341E-02   2.13901419E-02  0.963046789      0.948651373      0.323280007      -1.09696994E-03  0.275288284       7.00354576E-07
   2.05696747E-02   4.28216718E-02  0.963108301      0.948736131      0.323089331      -9.58374469E-04  0.275122017       6.25848770E-07
   2.05562152E-02   6.42531961E-02  0.963154018      0.948799074      0.322899848      -7.95073691E-04  0.274957687       5.21540642E-07
   2.05427557E-02   8.56847242E-02  0.963187993      0.948845983      0.322746247      -6.31920004E-04  0.274824649       5.66244125E-07
   2.05292962E-02  0.107116252      0.963211954      0.948878884      0.322637349      -4.80859570E-04  0.274730355       4.19095159E-07
   2.05158386E-02  0.128547773      0.963226974      0.948899388      0.322571397      -3.48159054E-04  0.274673223       1.62050128E-07
   2.05023792E-02  0.149979308      0.963234901      0.948910296      0.322541863      -2.36826367E-04  0.274647564       1.37835741E-07
   2.04889197E-02  0.171410829      0.963237464      0.948913872      0.322540373      -1.47887462E-04  0.274646074       1.54599547E-07
   2.04754602E-02  0.192842364      0.963236570      0.948912442      0.322558105      -8.09543344E-05  0.274661213      -3.72529030E-09
   2.04620007E-02  0.214273885      0.963233769      0.948908627      0.322586864      -3.44779546E-05  0.274685889      -5.58793545E-09
   2.04485413E-02  0.235705420      0.963230431      0.948904097      0.322619170      -6.15087674E-06  0.274713546       1.24797225E-07
   2.04350818E-02  0.257136941      0.963227808      0.948900461      0.322648734       6.91960577E-06  0.274738908       1.32247806E-07
   2.04216223E-02  0.278568476      0.963226616      0.948898613      0.322670639       8.12837789E-06  0.274757624      -1.04308128E-07
   4.11660746E-02   2.12874860E-02  0.963017523      0.948611379      0.323057830      -1.74089742E-03  0.275103092       1.04494393E-06
   4.11391705E-02   4.27269116E-02  0.963114262      0.948744535      0.322855979      -1.42324297E-03  0.274924397       8.12113285E-07
   4.11122665E-02   6.41663373E-02  0.963174284      0.948827207      0.322678328      -1.12991733E-03  0.274768740       6.89178705E-07
   4.10853624E-02   8.56057554E-02  0.963212013      0.948879361      0.322546154      -8.68189265E-04  0.274653316       8.13975930E-07
   4.10584584E-02  0.107045181      0.963234603      0.948910177      0.322463393      -6.40812446E-04  0.274581164       4.43309546E-07
   4.10315543E-02  0.128484607      0.963246047      0.948925912      0.322425753      -4.48933628E-04  0.274548203       4.17232513E-07
   4.10046503E-02  0.149924025      0.963249624      0.948930800      0.322424859      -2.92680226E-04  0.274547070       3.89292836E-07
   4.09777500E-02  0.171363458      0.963247597      0.948927999      0.322451234      -1.71089079E-04  0.274569571       3.85567546E-07
   4.09508459E-02  0.192802876      0.963242590      0.948920965      0.322494984      -8.21034118E-05  0.274607122       2.16066837E-07
   4.09239419E-02  0.214242309      0.963236332      0.948912382      0.322546810      -2.27297514E-05  0.274651587       2.73808837E-07
   4.08970378E-02  0.235681728      0.963230371      0.948904157      0.322598636       1.07967708E-05  0.274696052       2.70083547E-07
   4.08701338E-02  0.257121146      0.963225901      0.948897958      0.322643697       2.28578447E-05  0.274734706       2.57045031E-07
   4.08432297E-02  0.278560579      0.963223755      0.948894918      0.322676718       1.84509809E-05  0.274762958       1.82539225E-07
   6.17486648E-02   2.11365297E-02  0.963052213      0.948659718      0.322660595      -2.30320287E-03  0.274765790       1.58697367E-06
   6.17083460E-02   4.25875671E-02  0.963153839      0.948799551      0.322483242      -1.84508087E-03  0.274606526       1.25169754E-06
   6.16680235E-02   6.40386045E-02  0.963215768      0.948884904      0.322345734      -1.43299147E-03  0.274484098       1.18464231E-06
   6.16277009E-02   8.54896381E-02  0.963251591      0.948934019      0.322257638      -1.07418117E-03  0.274405926       8.95932317E-07
   6.15873821E-02  0.106940672      0.963269055      0.948958039      0.322219849      -7.69392587E-04  0.274372041       8.51228833E-07
   6.15470596E-02  0.128391713      0.963274181      0.948964834      0.322226435      -5.17543405E-04  0.274376959       5.28991222E-07
   6.15067370E-02  0.149842754      0.963270605      0.948959947      0.322268397      -3.16631689E-04  0.274412632       5.55068254E-07
   6.14664182E-02  0.171293780      0.963262022      0.948947847      0.322334886      -1.63876393E-04  0.274469703       3.20374966E-07
   6.14260957E-02  0.192744821      0.963250875      0.948932409      0.322415262      -5.54956641E-05  0.274538755       2.19792128E-07
   6.13857731E-02  0.214195862      0.963239253      0.948916495      0.322499454       1.30677909E-05  0.274611086       3.22237611E-07
   6.13454543E-02  0.235646889      0.963229239      0.948902667      0.322578400       4.71801650E-05  0.274678856       3.05473804E-07
   6.13051318E-02  0.257097930      0.963222086      0.948892653      0.322644919       5.29546160E-05  0.274735957       2.06753612E-07
   6.12648092E-02  0.278548956      0.963218451      0.948887944      0.322693557       3.66773093E-05  0.274777532       4.97326255E-07
   8.23309720E-02   2.09503211E-02  0.963143110      0.948785365      0.322135955      -2.72681797E-03  0.274316639       1.89431012E-06
   8.22772533E-02   4.24156822E-02  0.963230312      0.948905528      0.321995378      -2.16811663E-03  0.274188370       1.80862844E-06
   8.22235346E-02   6.38810396E-02  0.963282287      0.948976934      0.321913153      -1.66030705E-03  0.274112880       1.52736902E-06
   8.21698159E-02   8.53464007E-02  0.963308275      0.949012518      0.321886182      -1.21668389E-03  0.274086773       1.26659870E-06
   8.21161047E-02  0.106811762      0.963315666      0.949022591      0.321910113      -8.41269968E-04  0.274105757       1.08592212E-06
   8.20623860E-02  0.128277123      0.963310301      0.949015081      0.321976960      -5.33933518E-04  0.274162412       9.48086381E-07
   8.20086673E-02  0.149742484      0.963296711      0.948996186      0.322076261      -2.92380631E-04  0.274247497       8.64267349E-07
   8.19549561E-02  0.171207845      0.963278592      0.948971093      0.322196096      -1.12768212E-04  0.274350494       6.85453415E-07
   8.19012374E-02  0.192673206      0.963259220      0.948944151      0.322324634       9.95927985E-06  0.274461061       5.21540642E-07
   8.18475187E-02  0.214138567      0.963240683      0.948918641      0.322450876       8.18001499E-05  0.274569601       5.17815351E-07
   8.17938000E-02  0.235603914      0.963225424      0.948897481      0.322565079       1.09813576E-04  0.274667770       4.58210707E-07
   8.17400888E-02  0.257069290      0.963214636      0.948882699      0.322659582       1.01738071E-04  0.274748802       5.04776835E-07
   8.16863701E-02  0.278534651      0.963209450      0.948875368      0.322729021       6.50193251E-05  0.274808258       2.92435288E-07
  0.102913015       2.07400341E-02  0.963277400      0.948970854      0.321519554      -2.99857301E-03  0.273786187       2.22586095E-06
  0.102845922       4.22215685E-02  0.963340342      0.949057519      0.321417272      -2.36586132E-03  0.273691028       2.03587115E-06
  0.102778830       6.37031049E-02  0.963373184      0.949102700      0.321396738      -1.78271031E-03  0.273668498       1.88313425E-06
  0.102711737       8.51846412E-02  0.963382542      0.949115336      0.321441889      -1.26866682E-03  0.273704350       1.63726509E-06
  0.102644645      0.106666178      0.963374376      0.949103892      0.321541309      -8.32740217E-04  0.273788303       1.46403909E-06
  0.102577560      0.128147706      0.963354349      0.949076235      0.321683139      -4.77756519E-04  0.273909599       1.43237412E-06
  0.102510467      0.149629250      0.963327110      0.949038327      0.321854264      -2.02480704E-04  0.274056643       1.05984509E-06
  0.102443375      0.171110779      0.963296592      0.948996007      0.322040975      -3.05381445E-06  0.274217337       7.72997737E-07
  0.102376282      0.192592323      0.963266373      0.948954225      0.322229892       1.26394792E-04  0.274379998       6.79865479E-07
  0.102309190      0.214073852      0.963239133      0.948916554      0.322408766       1.93227825E-04  0.274533898       6.33299351E-07
  0.102242097      0.235555395      0.963217080      0.948886156      0.322567075       2.06126293E-04  0.274669945       5.71832061E-07
  0.102175005      0.257036924      0.963201940      0.948865175      0.322696865       1.74145884E-04  0.274781287       5.23403287E-07
  0.102107912      0.278518468      0.963194609      0.948855042      0.322793484       1.06092375E-04  0.274864018       4.74974513E-07
  0.123494908       2.05156635E-02  0.963445425      0.949203074      0.320832133      -3.11731477E-03  0.273192227       2.69338489E-06
  0.123414457       4.20144573E-02  0.963478863      0.949249029      0.320767045      -2.42520776E-03  0.273129821       2.55368650E-06
  0.123333998       6.35132566E-02  0.963486493      0.949259520      0.320810884      -1.78064883E-03  0.273163170       2.45310366E-06
  0.123253539       8.50120485E-02  0.963473380      0.949240983      0.320935905      -1.20821595E-03  0.273268163       2.04890966E-06
  0.123173088      0.106510840      0.963444412      0.949201047      0.321122557      -7.22113589E-04  0.273427457       2.02469528E-06
  0.123092629      0.128009632      0.963405073      0.949146509      0.321353108      -3.28728580E-04  0.273625493       1.71363354E-06
  0.123012170      0.149508432      0.963360250      0.949084401      0.321610451      -2.87651364E-05  0.273847073       1.46403909E-06
  0.122931719      0.171007231      0.963314116      0.949020624      0.321878105       1.81077965E-04  0.274077654       1.32434070E-06
  0.122851260      0.192506030      0.963270426      0.948960245      0.322140306       3.07210488E-04  0.274303496       1.19209290E-06
  0.122770801      0.214004815      0.963232279      0.948907495      0.322383195       3.58239427E-04  0.274512589       9.81613994E-07
  0.122690350      0.235503614      0.963202000      0.948865652      0.322595388       3.44245345E-04  0.274694949       9.14558768E-07
  0.122609891      0.257002413      0.963181496      0.948837221      0.322768748       2.75734725E-04  0.274843723       7.87898898E-07
  0.122529432      0.278501213      0.963171721      0.948823690      0.322899580       1.62739045E-04  0.274955630       7.32019544E-07
  0.144076750       2.02865545E-02  0.963641167      0.949473500      0.320083767      -3.08263092E-03  0.272543609       3.17394733E-06
  0.143982932       4.18029726E-02  0.963642061      0.949474633      0.320054829      -2.33694096E-03  0.272513568       3.03611159E-06
  0.143889114       6.33193925E-02  0.963619888      0.949444115      0.320165634      -1.63837837E-03  0.272605479       3.10316682E-06
  0.143795297       8.48358124E-02  0.963578880      0.949387372      0.320377946      -1.01597363E-03  0.272786379       2.95601785E-06
  0.143701479      0.106352232      0.963523924      0.949311495      0.320663154      -4.88652033E-04  0.273031294       2.82749534E-06
  0.143607661      0.127868652      0.963460684      0.949223936      0.320996314      -6.64003455E-05  0.273318291       2.45682895E-06
  0.143513858      0.149385065      0.963394165      0.949131787      0.321354955       2.47788150E-04  0.273627579       2.07498670E-06
  0.143420041      0.170901492      0.963328779      0.949041486      0.321718365       4.56642243E-04  0.273940951       1.93156302E-06
  0.143326223      0.192417905      0.963268757      0.948958516      0.322067708       5.66978357E-04  0.274242014       1.75088644E-06
  0.143232405      0.213934317      0.963217437      0.948887587      0.322386980       5.88625728E-04  0.274516821       1.57952309E-06
  0.143138587      0.235450745      0.963177264      0.948832095      0.322663754       5.33122686E-04  0.274754733       1.50874257E-06
  0.143044770      0.256967157      0.963150263      0.948794663      0.322889894       4.12588299E-04  0.274948716       1.27963722E-06
  0.142950952      0.278483570      0.963137448      0.948777020      0.323063076       2.38099310E-04  0.275096744       1.34669244E-06