 title = "grid"
                                   variables = "x","y","rho","P","u","v","M","S"
 zone n=         750  e =        1372  et=quadrilateral, f=fepoint
   0.00000000       0.00000000      0.963198125      0.948859990      0.322938263      -6.15701545E-04  0.274987549       5.92321157E-07
   1.00000000       0.00000000      0.952874541      0.939292014      0.315000117       7.22936238E-04  0.268142343       4.95196879E-03
   1.00000000      0.300000012      0.954459369      0.939292848      0.333753198      -1.36246614E-04  0.284341127       2.62629241E-03
   0.00000000      0.300000012      0.963321269      0.949029684      0.322256327       3.45865578E-06  0.274399370       4.67523932E-07
   1.00000000       2.14285720E-02  0.953001678      0.939396441      0.315608114       5.32172155E-04  0.268662542       4.87634912E-03
   1.00000000       4.28571440E-02  0.953125954      0.939424753      0.316892058       1.67054284E-04  0.269768685       4.72392701E-03
   1.00000000       6.42857179E-02  0.953248978      0.939402342      0.318583339      -2.83922709E-04  0.271229267       4.51942347E-03
   1.00000000       8.57142881E-02  0.953380585      0.939358294      0.320549726      -7.32466811E-04  0.272929221       4.27921489E-03
   1.00000000      0.107142858      0.953521490      0.939307749      0.322674334      -1.12203951E-03  0.274766862       4.01851535E-03
   1.00000000      0.128571436      0.953668296      0.939260125      0.324842513      -1.41615036E-03  0.276642352       3.75228375E-03
   1.00000000      0.150000006      0.953815997      0.939221323      0.326944172      -1.59313343E-03  0.278460145       3.49418260E-03
   1.00000000      0.171428576      0.953959286      0.939195216      0.328878433      -1.64384046E-03  0.280132711       3.25604714E-03
   1.00000000      0.192857146      0.954092562      0.939183652      0.330559075      -1.56941637E-03  0.281585276       3.04821506E-03
   1.00000000      0.214285716      0.954210520      0.939186871      0.331919491      -1.37958024E-03  0.282760382       2.87856162E-03
   1.00000000      0.235714287      0.954308927      0.939203978      0.332915694      -1.09119271E-03  0.283620179       2.75240839E-03
   1.00000000      0.257142872      0.954385102      0.939233243      0.333528996      -7.27178180E-04  0.284148753       2.67177075E-03
   1.00000000      0.278571427      0.954439402      0.939272046      0.333769888      -3.17797909E-04  0.284355611       2.63345428E-03
  0.979591846      0.300000012      0.954451799      0.939278364      0.333941966      -1.90062899E-04  0.284503043       2.62202881E-03
  0.959183693      0.300000012      0.954452336      0.939258695      0.334378749      -2.15198103E-04  0.284878224       2.60030478E-03
  0.938775539      0.300000012      0.954469621      0.939246297      0.334843665      -2.30586011E-04  0.285278797       2.56174430E-03
  0.918367326      0.300000012      0.954494417      0.939232886      0.335346133      -2.51049205E-04  0.285712630       2.51106359E-03
  0.897959173      0.300000012      0.954520285      0.939212263      0.335901290      -2.79107451E-04  0.286192685       2.45115533E-03
  0.877551019      0.300000012      0.954542637      0.939180434      0.336524606      -3.14674980E-04  0.286731988       2.38448195E-03
  0.857142866      0.300000012      0.954557955      0.939133704      0.337230682      -3.57390149E-04  0.287343085       2.31227465E-03
  0.836734712      0.300000012      0.954563916      0.939069390      0.338033140      -4.06804698E-04  0.288037658       2.23500282E-03
  0.816326559      0.300000012      0.954558432      0.938985169      0.338944882      -4.62286494E-04  0.288826734       2.15339288E-03
  0.795918345      0.300000012      0.954540551      0.938879728      0.339976758      -5.22961549E-04  0.289719671       2.06732750E-03
  0.775510192      0.300000012      0.954509676      0.938751996      0.341137797      -5.87347313E-04  0.290724218       1.97658688E-03
  0.755102038      0.300000012      0.954466164      0.938603044      0.342432708      -6.53232564E-04  0.291844368       1.88172609E-03
  0.734693885      0.300000012      0.954411805      0.938434899      0.343860358      -7.17206276E-04  0.293079108       1.78221986E-03
  0.714285731      0.300000012      0.954350054      0.938252866      0.345411122      -7.74518761E-04  0.294419974       1.67886727E-03
  0.693877578      0.300000012      0.954286873      0.938065112      0.347063690      -8.19016655E-04  0.295848489       1.57141499E-03
  0.673469365      0.300000012      0.954230785      0.937883973      0.348782241      -8.42766778E-04  0.297333449       1.46061741E-03
  0.653061211      0.300000012      0.954193175      0.937725604      0.350513041      -8.36650608E-04  0.298828244       1.34689361E-03
  0.632653058      0.300000012      0.954189003      0.937611163      0.352182835      -7.91011553E-04  0.300269425       1.23097189E-03
  0.612244904      0.300000012      0.954235733      0.937565863      0.353698522      -6.96720032E-04  0.301576197       1.11407787E-03
  0.591836751      0.300000012      0.954353809      0.937618673      0.354949623      -5.46472380E-04  0.302652866       9.97183844E-04
  0.571428597      0.300000012      0.954564571      0.937799692      0.355812848      -3.36956669E-04  0.303392917       8.81068408E-04
  0.551020384      0.300000012      0.954885066      0.938133538      0.356161743      -7.38898088E-05  0.303687185       7.67067075E-04
  0.530612230      0.300000012      0.955323458      0.938632548      0.355884492       2.24901232E-04  0.303439796       6.56191260E-04
  0.510204077      0.300000012      0.955870152      0.939285874      0.354914159       5.29795827E-04  0.302594036       5.51117584E-04
  0.489795923      0.300000012      0.956498086      0.940059602      0.353267491       8.09968158E-04  0.301165432       4.55098227E-04
  0.469387770      0.300000012      0.957176149      0.940913796      0.351052493       1.04756758E-03  0.299247801       3.71195376E-04
  0.448979586      0.300000012      0.957879066      0.941814721      0.348427683       1.23566459E-03  0.296977818       3.00567597E-04
  0.428571433      0.300000012      0.958585203      0.942731798      0.345551103       1.36703486E-03  0.294491619       2.42128968E-04
  0.408163279      0.300000012      0.959271610      0.943631113      0.342563093       1.42983033E-03  0.291910678       1.93472952E-04
  0.387755096      0.300000012      0.959918201      0.944483221      0.339595646       1.42212282E-03  0.289348930       1.52712688E-04
  0.367346942      0.300000012      0.960509777      0.945265889      0.336764753       1.35387119E-03  0.286906242       1.18523836E-04
  0.346938789      0.300000012      0.961036503      0.945964575      0.334159702       1.24042656E-03  0.284659445       8.98782164E-05
  0.326530606      0.300000012      0.961494029      0.946572900      0.331838846       1.09933643E-03  0.282658368       6.64386898E-05
  0.306122452      0.300000012      0.961882591      0.947090745      0.329829693       9.46777291E-04  0.280926496       4.76930290E-05
  0.285714298      0.300000012      0.962206066      0.947523415      0.328133374       7.95331027E-04  0.279464573       3.36393714E-05
  0.265306115      0.300000012      0.962470710      0.947878301      0.326732785       6.53529656E-04  0.278257608       2.31582671E-05
  0.244897962      0.300000012      0.962683618      0.948164761      0.325599730       5.26233460E-04  0.277281225       1.56573951E-05
  0.224489793      0.300000012      0.962851942      0.948392153      0.324700534       4.15537943E-04  0.276506364       1.06450170E-05
  0.204081640      0.300000012      0.962982953      0.948569357      0.324000746       3.21694301E-04  0.275903314       6.98864460E-06
  0.183673471      0.300000012      0.963083029      0.948705018      0.323467225       2.43800212E-04  0.275443584       4.51318920E-06
  0.163265303      0.300000012      0.963157952      0.948807061      0.323069930       1.80332034E-04  0.275101125       3.16835940E-06
  0.142857149      0.300000012      0.963212907      0.948881924      0.322781801       1.29730746E-04  0.274852753       2.18860805E-06
  0.122448981      0.300000012      0.963251889      0.948935270      0.322579622       9.02385218E-05  0.274678439       1.80862844E-06
  0.102040820      0.300000012      0.963278949      0.948972046      0.322443187       6.02221553E-05  0.274560779       1.21444464E-06
   8.16326514E-02  0.300000012      0.963296950      0.948996663      0.322355747       3.81431601E-05  0.274485350       1.00210309E-06
   6.12244904E-02  0.300000012      0.963308513      0.949012220      0.322303534       2.25595959E-05  0.274440289       5.43892384E-07
   4.08163257E-02  0.300000012      0.963315427      0.949021757      0.322274983       1.21836456E-05  0.274415582       5.90458512E-07
   2.04081628E-02  0.300000012      0.963319540      0.949027359      0.322261244       5.91583512E-06  0.274403661       5.15952706E-07
   0.00000000      0.278571427      0.963321626      0.949030042      0.322246909       4.68451344E-06  0.274391353       3.18512321E-07
   0.00000000      0.257142872      0.963322937      0.949031889      0.322228253       5.05310993E-07  0.274375379       2.99885869E-07
   0.00000000      0.235714287      0.963325024      0.949034810      0.322204769      -1.35576283E-05  0.274355292       3.40864062E-07
   0.00000000      0.214285716      0.963327229      0.949037790      0.322181284      -4.00935132E-05  0.274335146       2.70083547E-07
   0.00000000      0.192857146      0.963328302      0.949039280      0.322164148      -8.10833080E-05  0.274320513       3.20374966E-07
   0.00000000      0.171428576      0.963326931      0.949037313      0.322160542      -1.37915340E-04  0.274317533       2.16066837E-07
   0.00000000      0.150000006      0.963321388      0.949029744      0.322178572      -2.11295905E-04  0.274333239       3.59490514E-07
   0.00000000      0.128571436      0.963310301      0.949014485      0.322226107      -3.00718093E-04  0.274374396       3.52039933E-07
   0.00000000      0.107142858      0.963292599      0.948990285      0.322310120      -4.03718790E-04  0.274446994       5.58793545E-07
   0.00000000       8.57142881E-02  0.963267624      0.948955834      0.322434813      -5.15146123E-04  0.274554729       5.94183803E-07
   0.00000000       6.42857179E-02  0.963236809      0.948913515      0.322597533      -6.23969594E-04  0.274695188       7.30156898E-07
   0.00000000       4.28571440E-02  0.963205576      0.948870420      0.322779357      -7.06897699E-04  0.274851918       7.69272447E-07
   0.00000000       2.14285720E-02  0.963187993      0.948846161      0.322920233      -7.10421940E-04  0.274972916       7.45058060E-07
   2.05965936E-02  -4.13848684E-05  0.963138819      0.948778450      0.322947472      -9.56553267E-04  0.274999440       8.28877091E-07
   4.11929786E-02  -1.51938104E-04  0.963048518      0.948654473      0.322811753      -1.73450727E-03  0.274891675       1.42492354E-06
   6.17889874E-02  -3.14505887E-04  0.963057518      0.948667169      0.322451532      -2.42113578E-03  0.274588168       1.74902380E-06
   8.23846832E-02  -5.15037973E-04  0.963143766      0.948786378      0.321943074      -2.94081122E-03  0.274153978       1.97812915E-06
  0.102980107      -7.41501746E-04  0.963283062      0.948978722      0.321335763      -3.28914332E-03  0.273631781       2.29664147E-06
  0.123575367      -9.83132166E-04  0.963460267      0.949223459      0.320655763      -3.47410026E-03  0.273044378       2.57231295E-06
  0.144170567      -1.22986489E-03  0.963666737      0.949508905      0.319914967      -3.50197568E-03  0.272402108       3.24845314E-06
  0.164765805      -1.47186557E-03  0.963898599      0.949829519      0.319116771      -3.37387389E-03  0.271708161       4.04193997E-06
  0.185361236      -1.69908674E-03  0.964155018      0.950184166      0.318257987      -3.08462721E-03  0.270960063       5.02169132E-06
  0.205956906      -1.90079887E-03  0.964437306      0.950574994      0.317329943      -2.62160227E-03  0.270150423       6.39632344E-06
  0.226552933      -2.06502923E-03  0.964748919      0.951006830      0.316318691      -1.96290086E-03  0.269267857       8.34278762E-06
  0.247149289      -2.17781961E-03  0.965094984      0.951487601      0.315203428      -1.07397174E-03  0.268295169       1.16154552E-05
  0.267745912      -2.22215871E-03  0.965482771      0.952028036      0.313953936       9.85044899E-05  0.267207950       1.70525163E-05
  0.288342476      -2.17632344E-03  0.965922058      0.952643514      0.312525958       1.63809420E-03  0.265970767       2.64402479E-05
  0.308938444      -2.01110821E-03  0.966424525      0.953354120      0.310850412       3.68147483E-03  0.264529914       4.40776348E-05
  0.329532504      -1.68479502E-03  0.967002571      0.954184353      0.308807433       6.47047814E-03  0.262794763       7.74227083E-05
  0.350121617      -1.13302853E-03  0.967655718      0.955148637      0.306139976       1.04981149E-02  0.260577083       1.42157078E-04
  0.370698810      -2.45296280E-04  0.968559802      0.956519663      0.302373379       1.72139686E-02  0.257571876       2.69144773E-04
  0.391233593       1.31973682E-03  0.970176995      0.958983660      0.297518551       2.93605514E-02  0.254140824       5.06188720E-04
  0.411623418       4.19568829E-03  0.972416639      0.962469041      0.293009758       4.88505475E-02  0.252350509       9.05919820E-04
  0.431661844       8.91561527E-03  0.974819183      0.966407418      0.291736305       7.59352446E-02  0.255883932       1.53485220E-03
  0.451005518       1.59534402E-02  0.975429118      0.968119860      0.302033007      0.104684204      0.271180242       2.42952071E-03
  0.469851911       2.42583062E-02  0.965312779      0.955295324      0.334711105      0.107347123      0.298628479       3.68961785E-03
  0.489723206       2.94313785E-02  0.945400178      0.929493487      0.370725930       6.21122010E-02  0.320394486       5.49024157E-03
  0.510276794       2.94313785E-02  0.926821887      0.906057775      0.379693300      -1.15686879E-02  0.324706197       7.73924589E-03
  0.530148089       2.42583044E-02  0.914693892      0.891008437      0.356392562      -7.76893049E-02  0.312350720       9.43075866E-03
  0.548994482       1.59534402E-02  0.914980233      0.891725481      0.319542885     -0.103680968      0.287601560       9.79696214E-03
  0.568338156       8.91561527E-03  0.927883327      0.909074545      0.293124050      -8.85343030E-02  0.261451930       9.46079195E-03
  0.588376582       4.19568783E-03  0.940632880      0.926263094      0.280146450      -6.15806878E-02  0.244292840       9.08631645E-03
  0.608766437       1.31973659E-03  0.948450387      0.936672986      0.276500583      -3.88859436E-02  0.237464279       8.67509283E-03
  0.629301190      -2.45296367E-04  0.952218831      0.941491902      0.278134882      -2.34671496E-02  0.237242177       8.25499929E-03
  0.649878383      -1.13302865E-03  0.953456581      0.942834973      0.281807154      -1.45049645E-02  0.239825383       7.86193088E-03
  0.670467496      -1.68479513E-03  0.953715801      0.942863703      0.285598338      -9.31862462E-03  0.242888957       7.51181692E-03
  0.691061556      -2.01110821E-03  0.953749418      0.942619264      0.289008290      -5.93384588E-03  0.245746195       7.20322691E-03
  0.711657524      -2.17632344E-03  0.953722060      0.942323804      0.292058140      -3.53185274E-03  0.248340666       6.92988187E-03
  0.732254088      -2.22215871E-03  0.953676045      0.942030191      0.294814050      -1.74020045E-03  0.250703096       6.68575056E-03
  0.752850711      -2.17781961E-03  0.953621864      0.941748857      0.297330707      -3.67717526E-04  0.252869606       6.46659918E-03
  0.773447096      -2.06502923E-03  0.953561842      0.941479266      0.299647719       6.93869137E-04  0.254869103       6.26844354E-03
  0.794043124      -1.90079887E-03  0.953496695      0.941219449      0.301793337       1.51038624E-03  0.256723255       6.08807243E-03
  0.814638793      -1.69908674E-03  0.953426838      0.940967679      0.303787529       2.12346786E-03  0.258447826       5.92311099E-03
  0.835234165      -1.47186557E-03  0.953352988      0.940723360      0.305643946       2.55961041E-03  0.260053605       5.77186793E-03
  0.855829418      -1.22986489E-03  0.953276396      0.940486491      0.307371169       2.83504557E-03  0.261547625       5.63257746E-03
  0.876424611      -9.83132166E-04  0.953198671      0.940258086      0.308972955       2.95817340E-03  0.262932658       5.50379790E-03
  0.897019863      -7.41501746E-04  0.953121901      0.940040350      0.310447812       2.93086097E-03  0.264207363       5.38501702E-03
  0.917615294      -5.15037973E-04  0.953049123      0.939836144      0.311788261       2.74908822E-03  0.265365362       5.27459942E-03
  0.938211024      -3.14505887E-04  0.952983618      0.939650178      0.312977701       2.40320410E-03  0.266392350       5.17299585E-03
  0.958807051      -1.51938104E-04  0.952928305      0.939487040      0.313981891       1.88029523E-03  0.267259479       5.08062728E-03
  0.979403377      -4.13848684E-05  0.952873051      0.939335763      0.314708143       1.19062653E-03  0.267888546       5.00072166E-03
   2.05831341E-02   2.13901419E-02  0.963141859      0.948782682      0.322857141      -1.09571230E-03  0.274922729       9.08970833E-07
   2.05696747E-02   4.28216718E-02  0.963203013      0.948867083      0.322667003      -9.57387034E-04  0.274756968       9.89064574E-07
   2.05562152E-02   6.42531961E-02  0.963248551      0.948929906      0.322477996      -7.94334337E-04  0.274593025       9.36910510E-07
   2.05427557E-02   8.56847242E-02  0.963282406      0.948976457      0.322324812      -6.31342118E-04  0.274460375       7.95349479E-07
   2.05292962E-02  0.107116252      0.963306189      0.949009061      0.322216332      -4.80468210E-04  0.274366468       6.05359674E-07
   2.05158386E-02  0.128547773      0.963321149      0.949029565      0.322150588      -3.47901980E-04  0.274309456       5.19677997E-07
   2.05023792E-02  0.149979308      0.963329017      0.949040353      0.322121203      -2.36681721E-04  0.274283946       3.76254320E-07
   2.04889197E-02  0.171410829      0.963331521      0.949043870      0.322119772      -1.47838349E-04  0.274282515       5.02914190E-07
   2.04754602E-02  0.192842364      0.963330567      0.949042439      0.322137654      -8.09329649E-05  0.274297804       3.42726707E-07
   2.04620007E-02  0.214273885      0.963327825      0.949038625      0.322166473      -3.44508153E-05  0.274322510       3.40864062E-07
   2.04485413E-02  0.235705420      0.963324487      0.949034035      0.322198808      -6.12235772E-06  0.274350196       3.29688191E-07
   2.04350818E-02  0.257136941      0.963321745      0.949030340      0.322228402       6.92351477E-06  0.274375588       4.47034836E-07
   2.04216223E-02  0.278568476      0.963320315      0.949028552      0.322250456       8.14553914E-06  0.274394423       6.05359674E-07
   4.11660746E-02   2.12874860E-02  0.963111937      0.948742151      0.322635889      -1.73871790E-03  0.274738342       1.64844096E-06
   4.11391705E-02   4.27269116E-02  0.963208258      0.948874712      0.322434574      -1.42155413E-03  0.274560124       1.33179128E-06
   4.11122665E-02   6.41663373E-02  0.963268101      0.948957205      0.322257370      -1.12864841E-03  0.274404854       1.28708780E-06
   4.10853624E-02   8.56057554E-02  0.963305771      0.949009061      0.322125524      -8.67270865E-04  0.274289757       1.19768083E-06
   4.10584584E-02  0.107045181      0.963328183      0.949039757      0.322043061      -6.40169135E-04  0.274217844       9.66712832E-07
   4.10315543E-02  0.128484607      0.963339627      0.949055433      0.322005570      -4.48541803E-04  0.274185002       8.81031156E-07
   4.10046503E-02  0.149924025      0.963343084      0.949060082      0.322004884      -2.92443641E-04  0.274184078       7.86036253E-07
   4.09777500E-02  0.171363458      0.963341057      0.949057341      0.322031289      -1.70920976E-04  0.274206609       8.40052962E-07
   4.09508459E-02  0.192802876      0.963336051      0.949050248      0.322075069      -8.20331188E-05  0.274244159       6.12810254E-07
   4.09239419E-02  0.214242309      0.963329852      0.949041605      0.322126895      -2.27106539E-05  0.274288684       5.27128577E-07
   4.08970378E-02  0.235681728      0.963323772      0.949033320      0.322178781       1.08127342E-05  0.274333149       6.31436706E-07
   4.08701338E-02  0.257121146      0.963319302      0.949027121      0.322223872       2.28944500E-05  0.274371833       6.16535544E-07
   4.08432297E-02  0.278560579      0.963317096      0.949023962      0.322257012       1.85115241E-05  0.274400175       5.08502126E-07
   6.17486648E-02   2.11365297E-02  0.963145912      0.948789179      0.322240114      -2.30018701E-03  0.274402320       1.81235373E-06
   6.17083460E-02   4.25875671E-02  0.963247120      0.948928654      0.322063327      -1.84271857E-03  0.274243563       1.71735883E-06
   6.16680235E-02   6.40386045E-02  0.963308990      0.949013829      0.321926087      -1.43124338E-03  0.274121433       1.56089664E-06
   6.16277009E-02   8.54896381E-02  0.963344514      0.949062586      0.321838319      -1.07290607E-03  0.274043530       1.33924186E-06
   6.15873821E-02  0.106940672      0.963361919      0.949086607      0.321800649      -7.68513419E-04  0.274009705       1.29453838E-06
   6.15470596E-02  0.128391713      0.963366926      0.949093163      0.321807384      -5.16953063E-04  0.274014801       9.87201929E-07
   6.15067370E-02  0.149842754      0.963363409      0.949088216      0.321849376      -3.16264050E-04  0.274050534       8.71717930E-07
   6.14664182E-02  0.171293780      0.963354647      0.949076116      0.321915954      -1.63667311E-04  0.274107635       8.88481736E-07
   6.14260957E-02  0.192744821      0.963343441      0.949060559      0.321996361      -5.54413564E-05  0.274176717       7.54371285E-07
   6.13857731E-02  0.214195862      0.963331938      0.949044645      0.322080463       1.30788621E-05  0.274248958       6.85453415E-07
   6.13454543E-02  0.235646889      0.963321924      0.949030817      0.322159410       4.72302636E-05  0.274316788       6.68689609E-07
   6.13051318E-02  0.257097930      0.963314712      0.949020922      0.322225958       5.30353973E-05  0.274373859       6.89178705E-07
   6.12648092E-02  0.278548956      0.963311136      0.949015915      0.322274715       3.67810462E-05  0.274415582       6.81728125E-07
   8.23309720E-02   2.09503211E-02  0.963235676      0.948913217      0.321717441      -2.72316555E-03  0.273954958       2.12527812E-06
   8.22772533E-02   4.24156822E-02  0.963322699      0.949033201      0.321577340      -2.16523139E-03  0.273827136       2.03400850E-06
   8.22235346E-02   6.38810396E-02  0.963374317      0.949104130      0.321495354      -1.65816909E-03  0.273751855       1.78813934E-06
   8.21698159E-02   8.53464007E-02  0.963400126      0.949139655      0.321468562      -1.21515710E-03  0.273725897       1.72294676E-06
   8.21161047E-02  0.106811762      0.963407516      0.949149668      0.321492553      -8.40198365E-04  0.273744911       1.48452818E-06
   8.20623860E-02  0.128277123      0.963402271      0.949142098      0.321559370      -5.33209939E-04  0.273801595       1.19954348E-06
   8.20086673E-02  0.149742484      0.963388503      0.949123144      0.321658701      -2.91951001E-04  0.273886651       1.22748315E-06
   8.19549561E-02  0.171207845      0.963370502      0.949098051      0.321778446      -1.12563219E-04  0.273989588       9.61124897E-07
   8.19012374E-02  0.192673206      0.963350832      0.949071050      0.321906984       9.99265103E-06  0.274100125       1.07474625E-06
   8.18475187E-02  0.214138567      0.963332474      0.949045479      0.322033107       8.18401895E-05  0.274208605       7.56233931E-07
   8.17938000E-02  0.235603914      0.963317215      0.949024320      0.322147220       1.09891269E-04  0.274306685       6.96629286E-07
   8.17400888E-02  0.257069290      0.963306427      0.949009478      0.322241694       1.01816600E-04  0.274387687       6.81728125E-07
   8.16863701E-02  0.278534651      0.963301182      0.949002087      0.322311342       6.51461814E-05  0.274447352       5.81145287E-07
  0.102913015       2.07400341E-02  0.963368595      0.949096799      0.321103483      -2.99447146E-03  0.273426682       2.33575702E-06
  0.102845922       4.22215685E-02  0.963431180      0.949183106      0.321001709      -2.36262172E-03  0.273331970       2.38418579E-06
  0.102778830       6.37031049E-02  0.963463962      0.949228108      0.320981264      -1.78031938E-03  0.273309559       2.13831663E-06
  0.102711737       8.51846412E-02  0.963473141      0.949240744      0.321026415      -1.26694993E-03  0.273345411       2.06567347E-06
  0.102644645      0.106666178      0.963465035      0.949229300      0.321125776      -8.31539044E-04  0.273429275       1.80676579E-06
  0.102577560      0.128147706      0.963445008      0.949201405      0.321267456      -4.77003661E-04  0.273550481       1.53481960E-06
  0.102510467      0.149629250      0.963417709      0.949163556      0.321438462      -2.02044117E-04  0.273697406       1.30571425E-06
  0.102443375      0.171110779      0.963387251      0.949121535      0.321624994      -2.87813964E-06  0.273857921       1.31130219E-06
  0.102376282      0.192592323      0.963357031      0.949079633      0.321813703       1.26406740E-04  0.274020374       1.09896064E-06
  0.102309190      0.214073852      0.963329732      0.949041963      0.321992457       1.93261949E-04  0.274174154       1.05239451E-06
  0.102242097      0.235555395      0.963307679      0.949011564      0.322150707       2.06155106E-04  0.274310231       1.07474625E-06
  0.102175005      0.257036924      0.963292539      0.948990643      0.322280437       1.74222849E-04  0.274421453       1.08405948E-06
  0.102107912      0.278518468      0.963285208      0.948980451      0.322377145       1.06204985E-04  0.274504274       9.74163413E-07
  0.123494908       2.05156635E-02  0.963534892      0.949326634      0.320418924      -3.11294314E-03  0.272835284       2.88523734E-06
  0.123414457       4.20144573E-02  0.963568151      0.949372411      0.320354104      -2.42173346E-03  0.272773117       2.73808837E-06
  0.123333998       6.35132566E-02  0.963575661      0.949382842      0.320398033      -1.77807792E-03  0.272806495       2.83308327E-06
  0.123253539       8.50120485E-02  0.963562310      0.949364305      0.320523024      -1.20639487E-03  0.272911429       2.68220901E-06
  0.123173088      0.106510840      0.963533580      0.949324250      0.320709348      -7.20940880E-04  0.273070544       2.28174031E-06
  0.123092629      0.128009632      0.963494301      0.949269831      0.320939630      -3.28041991E-04  0.273268312       2.00420618E-06
  0.123012170      0.149508432      0.963449419      0.949207723      0.321196735      -2.84350517E-05  0.273489684       1.74902380E-06
  0.122931719      0.171007231      0.963403285      0.949144125      0.321464032       1.81134761E-04  0.273719907       1.78627670E-06
  0.122851260      0.192506030      0.963359833      0.949083745      0.321725905       3.07153212E-04  0.273945510       1.31502748E-06
  0.122770801      0.214004815      0.963321507      0.949031174      0.321968675       3.58200254E-04  0.274154395       1.62050128E-06
  0.122690350      0.235503614      0.963291407      0.948989332      0.322180629       3.44244967E-04  0.274336636       1.30012631E-06
  0.122609891      0.257002413      0.963270724      0.948960900      0.322354019       2.75781029E-04  0.274485409       1.42306089E-06
  0.122529432      0.278501213      0.963260949      0.948947370      0.322485059       1.62850294E-04  0.274597496       1.36904418E-06
  0.144076750       2.02865545E-02  0.963728607      0.949594438      0.319673628      -3.07821343E-03  0.272189379       3.46451998E-06
  0.143982932       4.18029726E-02  0.963729322      0.949595571      0.319645047      -2.33347318E-03  0.272159636       3.66382301E-06
  0.143889114       6.33193925E-02  0.963707149      0.949564993      0.319755763      -1.63582829E-03  0.272251487       3.67313623E-06
  0.143795297       8.48358124E-02  0.963666141      0.949508309      0.319967926      -1.01423508E-03  0.272432268       3.50177288E-06
  0.143701479      0.106352232      0.963611424      0.949432611      0.320252687      -4.87620855E-04  0.272676796       3.29129398E-06
  0.143607661      0.127868652      0.963548183      0.949345052      0.320585400      -6.59037905E-05  0.272963375       2.91690230E-06
  0.143513858      0.149385065      0.963481724      0.949253142      0.320943624       2.47924996E-04  0.273272306       2.68593431E-06
  0.143420041      0.170901492      0.963416517      0.949163020      0.321306556       4.56544250E-04  0.273585230       2.46427953E-06
  0.143326223      0.192417905      0.963356555      0.949080110      0.321655452       5.66773699E-04  0.273885906       2.25380063E-06
  0.143232405      0.213934317      0.963305295      0.949009180      0.321974427       5.88454248E-04  0.274160504       2.08057463E-06
  0.143138587      0.235450745      0.963265240      0.948953748      0.322250962       5.32999868E-04  0.274398208       1.81235373E-06
  0.143044770      0.256967157      0.963238239      0.948916376      0.322477043       4.12569003E-04  0.274592102       1.72480941E-06
  0.142950952      0.278483570      0.963225365      0.948898911      0.322650492       2.38223336E-04  0.274740338       1.97254121E-06